ITEM: TIMESTEP
0
ITEM: NUMBER OF ATOMS
896
ITEM: BOX BOUNDS xy xz yz pp pp pp
-2.3600000000000001e+01 1.0468800000000000e+02 0.0000000000000000e+00
2.4070000000000000e+01 8.8213999999999999e+01 0.0000000000000000e+00
-1.6989999999999998e+01 4.7154000000000003e+01 0.0000000000000000e+00
ITEM: ATOMS id type xs ys zs
1 1 0.346018 0.633574 0.152781
2 2 0.350461 0.611437 0.152781
3 2 0.34898 0.600368 0.131735
4 2 0.352878 0.577763 0.131423
5 2 0.346096 0.563108 0.144674
6 2 0.349448 0.540191 0.145142
7 2 0.360205 0.535202 0.154808
8 3 0.363167 0.546583 0.173672
9 4 0.373067 0.539411 0.181311
10 5 0.382889 0.546115 0.176322
11 6 0.382811 0.56342 0.160264
12 7 0.390528 0.538632 0.184429
13 2 0.356152 0.544244 0.191444
14 2 0.356697 0.563732 0.205475
15 2 0.351943 0.562017 0.227301
16 2 0.358334 0.549389 0.243047
17 2 0.369793 0.555937 0.246477
18 2 0.371586 0.57823 0.255051
19 2 0.371976 0.596626 0.239461
20 3 0.381797 0.600836 0.228548
21 4 0.380706 0.619388 0.215453
22 5 0.375016 0.619388 0.197836
23 6 0.375951 0.640902 0.188326
24 7 0.370105 0.604889 0.190821
25 2 0.38663 0.583375 0.217479
26 2 0.397153 0.588364 0.206722
27 2 0.406819 0.587272 0.220909
28 2 0.411184 0.565135 0.224651
29 2 0.404247 0.550324 0.237123
30 2 0.409859 0.530057 0.243047
31 2 0.403467 0.516494 0.258013
32 3 0.403857 0.522574 0.280151
33 4 0.414224 0.527875 0.287478
34 5 0.423111 0.516494 0.289817
35 6 0.421474 0.493421 0.287322
36 7 0.431295 0.524913 0.294026
37 2 0.397933 0.508231 0.293402
38 2 0.398478 0.511973 0.317099
39 2 0.392866 0.531149 0.325829
40 2 0.393022 0.530213 0.349682
41 2 0.38663 0.546583 0.361686
42 2 0.390294 0.569188 0.360439
43 2 0.384525 0.582595 0.376808
44 3 0.384292 0.605357 0.375249
45 4 0.376497 0.611593 0.390528
46 5 0.37182 0.630456 0.389748
47 6 0.364181 0.631548 0.407521
48 7 0.373612 0.643708 0.376808
49 2 0.394035 0.616893 0.378991
50 2 0.403935 0.608786 0.368546
51 2 0.413055 0.624221 0.368078
52 2 0.423111 0.61206 0.364025
53 2 0.433322 0.623909 0.360751
54 2 0.442442 0.608942 0.364804
55 2 0.453355 0.617205 0.359192
56 3 0.456863 0.620011 0.337678
57 4 0.464969 0.635601 0.340952
58 5 0.471751 0.646202 0.32848
59 6 0.474401 0.634354 0.308992
60 7 0.475103 0.663039 0.333624
61 2 0.46037 0.600992 0.326921
62 2 0.453121 0.581972 0.328636
63 2 0.45507 0.564667 0.312578
64 2 0.466295 0.55734 0.309616
65 2 0.467152 0.538164 0.295273
66 2 0.462553 0.540814 0.273447
67 2 0.463956 0.521327 0.259728
68 3 0.459045 0.522574 0.239149
69 4 0.45733 0.502619 0.228704
70 5 0.463644 0.486406 0.223559
71 6 0.473388 0.485002 0.236811
72 7 0.461072 0.474245 0.210308
73 2 0.463021 0.538164 0.224651
74 2 0.473778 0.534423 0.214985
75 2 0.477597 0.552351 0.200642
76 2 0.479 0.573709 0.211088
77 2 0.48508 0.572618 0.231666
78 2 0.487887 0.59382 0.241176
79 2 0.488666 0.594132 0.265185
80 3 0.497241 0.583375 0.276098
81 4 0.495136 0.561081 0.277189
82 5 0.497085 0.544868 0.264093
83 6 0.507608 0.546583 0.253336
84 7 0.491083 0.530525 0.262378
85 2 0.507998 0.589455 0.271421
86 2 0.511116 0.611904 0.277033
87 2 0.508309 0.62843 0.260664
88 2 0.512051 0.650256 0.267055
89 2 0.508777 0.667716 0.252089
90 2 0.497007 0.67099 0.251621
91 2 0.493187 0.69001 0.239149
92 3 0.495292 0.689542 0.2167
93 4 0.49576 0.710121 0.206722
94 5 0.489446 0.727114 0.207034
95 6 0.480637 0.725555 0.22278
96 7 0.491161 0.741924 0.195965
97 2 0.489602 0.674264 0.204228
98 2 0.478221 0.678006 0.197836
99 2 0.474791 0.661169 0.18209
100 2 0.463644 0.663039 0.17336
101 2 0.45507 0.65883 0.189418
102 2 0.444079 0.65618 0.180375
103 2 0.435816 0.652282 0.197368
104 3 0.426073 0.643708 0.189573
105 4 0.429035 0.624221 0.179596
106 5 0.42389 0.614087 0.164006
107 6 0.415627 0.627494 0.154028
108 7 0.426228 0.596626 0.158861
109 2 0.418511 0.638563 0.205787
110 2 0.412431 0.6554 0.217635
111 2 0.405416 0.644176 0.233537
112 2 0.397543 0.657271 0.246009
113 2 0.38928 0.668184 0.232446
114 2 0.379069 0.672705 0.243982
115 2 0.380082 0.687827 0.262378
116 3 0.370261 0.692504 0.272824
117 4 0.36535 0.673017 0.278748
118 5 0.354827 0.671146 0.277189
119 6 0.35202 0.649476 0.28436
120 7 0.34898 0.684398 0.270953
121 2 0.37143 0.7056 0.291376
122 2 0.375951 0.727426 0.28779
123 2 0.376575 0.740833 0.307589
124 2 0.383668 0.732259 0.32505
125 2 0.394893 0.727582 0.317879
126 2 0.402766 0.724464 0.335807
127 2 0.39957 0.707627 0.351553
128 3 0.407832 0.701547 0.366051
129 4 0.406195 0.681591 0.376341
130 5 0.399024 0.675355 0.390839
131 6 0.388969 0.687671 0.389592
132 7 0.400661 0.661013 0.402532
133 2 0.41134 0.71776 0.38055
134 2 0.420616 0.711212 0.394581
135 2 0.430828 0.706379 0.383044
136 2 0.439402 0.698273 0.397387
137 2 0.449224 0.691257 0.385695
138 2 0.456785 0.678629 0.399258
139 2 0.465359 0.668028 0.386474
140 3 0.471829 0.652126 0.396608
141 4 0.477285 0.640434 0.380862
142 5 0.487107 0.643864 0.373067
143 6 0.492408 0.66226 0.3832
144 7 0.490771 0.632951 0.359815
145 2 0.465827 0.63716 0.408924
146 2 0.472219 0.618608 0.41703
147 2 0.466684 0.605824 0.433868
148 2 0.456005 0.596626 0.427787
149 2 0.449691 0.589455 0.446807
150 2 0.45429 0.570903 0.458656
151 2 0.448834 0.566538 0.479546
152 3 0.448678 0.584154 0.494201
153 4 0.458266 0.596159 0.49498
154 5 0.468165 0.591482 0.501216
155 6 0.469646 0.56872 0.506517
156 7 0.474791 0.604889 0.501996
157 2 0.444313 0.579166 0.514623
158 2 0.444936 0.597094 0.530525
159 2 0.439168 0.591949 0.550792
160 2 0.440415 0.608163 0.568253
161 2 0.437063 0.630456 0.563108
162 2 0.43683 0.643864 0.582907
163 2 0.433244 0.666469 0.579789
164 3 0.43075 0.67707 0.599277
165 4 0.439558 0.676759 0.613152
166 5 0.439714 0.663507 0.629677
167 6 0.449847 0.666937 0.641214
168 7 0.432854 0.651347 0.634042
169 2 0.427398 0.69874 0.596938
170 2 0.41703 0.702014 0.585713
171 2 0.413834 0.725087 0.583999
172 2 0.404169 0.728205 0.570123
173 2 0.393957 0.720722 0.579945
174 2 0.384837 0.720878 0.564355
175 2 0.38437 0.700923 0.550948
176 3 0.375561 0.69952 0.536605
177 4 0.37751 0.712148 0.518209
178 5 0.374392 0.732103 0.516962
179 6 0.37751 0.739898 0.495915
180 7 0.369949 0.741769 0.530525
181 2 0.373768 0.678473 0.52881
182 2 0.362778 0.675823 0.519456
183 2 0.361452 0.656648 0.505425
184 2 0.349994 0.653218 0.499345
185 2 0.347967 0.637316 0.481885
186 2 0.336275 0.634198 0.478299
187 2 0.333313 0.62235 0.458344
188 3 0.322322 0.615958 0.457564
189 4 0.315774 0.632327 0.465827
190 5 0.310006 0.629053 0.483132
191 6 0.304393 0.649164 0.487497
192 7 0.309538 0.612996 0.492797
193 2 0.31858 0.610969 0.436674
194 2 0.307277 0.603174 0.436362
195 2 0.302678 0.599433 0.414536
196 2 0.308291 0.582907 0.401285
197 2 0.308525 0.561081 0.41095
198 2 0.313825 0.544712 0.397075
199 2 0.325284 0.549233 0.391619
200 3 0.332299 0.554222 0.408768
201 4 0.342589 0.558431 0.400349
202 5 0.345239 0.578386 0.39614
203 6 0.355996 0.57823 0.387098
204 7 0.339704 0.593352 0.398946
205 2 0.333157 0.537852 0.424514
206 2 0.34103 0.542218 0.44213
207 2 0.338847 0.562173 0.45429
208 2 0.346018 0.565758 0.47331
209 2 0.346018 0.548142 0.489524
210 2 0.335261 0.543932 0.499033
211 2 0.334716 0.525536 0.514312
212 3 0.335963 0.504802 0.504958
213 4 0.329415 0.489835 0.515403
214 5 0.319515 0.486873 0.508855
215 6 0.314838 0.470036 0.522107
216 7 0.315384 0.496227 0.49498
217 2 0.346564 0.496539 0.506361
218 2 0.348123 0.475493 0.495136
219 2 0.34711 0.47596 0.471127
220 2 0.355372 0.489212 0.460215
221 2 0.354437 0.489991 0.436362
222 2 0.356464 0.469101 0.425449
223 2 0.359582 0.470972 0.402376
224 3 0.351865 0.475804 0.385851
225 4 0.357399 0.481729 0.366987
226 5 0.363089 0.499189 0.362622
227 6 0.361219 0.516806 0.377588
228 7 0.36878 0.499813 0.347655
229 2 0.342744 0.488432 0.391307
230 2 0.333936 0.489835 0.374782
231 2 0.336586 0.50106 0.354359
232 2 0.32731 0.502931 0.339237
233 2 0.318736 0.517897 0.346252
234 2 0.309382 0.518365 0.331598
235 2 0.300106 0.530681 0.340484
236 3 0.290362 0.527875 0.329259
237 4 0.290284 0.539879 0.310239
238 5 0.292233 0.530837 0.291687
239 6 0.290908 0.547362 0.275318
240 7 0.294494 0.512908 0.288881
241 2 0.281398 0.534734 0.341575
242 2 0.270719 0.527719 0.333001
243 2 0.26916 0.504022 0.33456
244 2 0.258559 0.496071 0.326765
245 2 0.257623 0.472063 0.326921
246 2 0.265964 0.461774 0.313202
247 2 0.264717 0.438545 0.308057
248 3 0.255675 0.431061 0.296209
249 4 0.258715 0.41095 0.288258
250 5 0.252089 0.394581 0.287946
251 6 0.257857 0.376341 0.278592
252 7 0.243203 0.395049 0.294182
253 2 0.252479 0.444936 0.279371
254 2 0.243359 0.437297 0.265652
255 2 0.239383 0.45507 0.251621
256 2 0.230263 0.449146 0.237435
257 2 0.233381 0.435582 0.218571
258 2 0.224339 0.432309 0.203293
259 2 0.216388 0.415783 0.21062
260 3 0.206333 0.416251 0.199707
261 4 0.201422 0.435427 0.206411
262 5 0.190977 0.436674 0.20797
263 6 0.188482 0.4585 0.215453
264 7 0.184974 0.422799 0.204228
265 2 0.206644 0.415627 0.176946
266 2 0.212491 0.397543 0.1665
267 2 0.212335 0.399258 0.142648
268 2 0.201812 0.393957 0.13267
269 2 0.2015 0.397699 0.109129
270 2 0.191055 0.391463 0.0993078
271 2 0.190587 0.394425 0.0754552
272 3 0.191756 0.415471 0.0671926
273 4 0.192458 0.412977 0.044899
274 5 0.197758 0.425293 0.0310239
275 6 0.205007 0.440571 0.0419369
276 7 0.196823 0.423266 0.0126278
277 2 0.183337 0.42997 0.072649
278 2 0.172736 0.425917 0.0622038
279 2 0.164785 0.442754 0.0682839
280 2 0.154418 0.443066 0.0561237
281 2 0.147559 0.423578 0.0578386
282 2 0.149819 0.406585 0.0416251
283 2 0.142492 0.38741 0.0431841
284 3 0.143038 0.376808 0.0632951
285 4 0.153561 0.373379 0.0712459
286 5 0.16159 0.36153 0.0639187
287 6 0.160186 0.354671 0.0416251
288 7 0.168995 0.357633 0.0746757
289 2 0.136724 0.357945 0.0671926
290 2 0.125421 0.356542 0.0592417
291 2 0.124096 0.350617 0.0363245
292 2 0.129163 0.329883 0.0299327
293 2 0.124096 0.309928 0.0383512
294 2 0.130644 0.290752 0.032427
295 2 0.124719 0.269862 0.0332065
296 3 0.131189 0.251933 0.0274383
297 4 0.125811 0.237123 0.0140309
298 5 0.116223 0.229484 0.0180843
299 6 0.113339 0.215609 0
300 7 0.110922 0.233537 0.0330506
301 2 0.13688 0.241956 0.0445872
302 2 0.130722 0.228081 0.0595535
303 2 0.137425 0.218103 0.0767024
304 2 0.131033 0.203448 0.0905775
305 2 0.136957 0.194874 0.109597
306 2 0.129864 0.18209 0.123784
307 2 0.135087 0.171957 0.14296
308 3 0.143271 0.156835 0.137659
309 4 0.138906 0.142024 0.123316
310 5 0.144519 0.135476 0.106635
311 6 0.137581 0.120978 0.094319
312 7 0.153327 0.140621 0.102738
313 2 0.147948 0.146857 0.156211
314 2 0.145688 0.123628 0.16042
315 2 0.134385 0.118016 0.166033
316 2 0.132904 0.0944749 0.169618
317 2 0.138672 0.0854328 0.188638
318 2 0.137425 0.0617361 0.190665
319 2 0.143271 0.0520703 0.209373
320 3 0.138283 0.0494201 0.229795
321 4 0.133528 0.0293091 0.234784
322 5 0.127681 0.0140309 0.22543
323 6 0.126512 0.0166812 0.202201
324 7 0.124252 0 0.235876
325 2 0.13228 0.0667249 0.238526
326 2 0.121368 0.072649 0.230887
327 2 0.112559 0.0569032 0.234628
328 2 0.101568 0.0661013 0.230887
329 2 0.0975929 0.066569 0.208281
330 2 0.10453 0.0779496 0.192536
331 2 0.0995417 0.0826266 0.171333
332 3 0.0961119 0.0648541 0.158394
333 4 0.102426 0.046458 0.160732
334 5 0.111468 0.0450549 0.150131
335 6 0.115911 0.0238526 0.153561
336 7 0.115287 0.0589299 0.139842
337 2 0.0851989 0.0589299 0.161044
338 2 0.0817691 0.0420928 0.145298
339 2 0.0699988 0.0405338 0.141712
340 2 0.0652438 0.0595535 0.130488
341 2 0.0678941 0.0609566 0.107103
342 2 0.0700767 0.0832502 0.0997755
343 2 0.0814573 0.0896421 0.104297
344 3 0.0840297 0.111312 0.0991519
345 4 0.0940852 0.113651 0.0887067
346 5 0.104063 0.108662 0.0940072
347 6 0.104608 0.0946308 0.112871
348 7 0.111312 0.114898 0.0840297
349 2 0.0822368 0.125499 0.116769
350 2 0.0845753 0.148884 0.113651
351 2 0.0960339 0.155432 0.110688
352 2 0.103595 0.148728 0.127993
353 2 0.104998 0.164006 0.146233
354 2 0.0952544 0.172113 0.157614
355 2 0.099074 0.184117 0.176946
356 3 0.0921364 0.197524 0.189106
357 4 0.0973591 0.198616 0.209217
358 5 0.0922144 0.204228 0.226677
359 6 0.0999314 0.20454 0.244138
360 7 0.0830163 0.208281 0.227613
361 2 0.0913569 0.218727 0.181155
362 2 0.0854328 0.223871 0.1612
363 2 0.0735844 0.220442 0.161823
364 2 0.0699208 0.198616 0.155587
365 2 0.0579945 0.197368 0.155276
366 2 0.0534734 0.177725 0.145142
367 2 0.0566694 0.173048 0.122537
368 3 0.0565135 0.190041 0.107415
369 4 0.0629053 0.18552 0.0891744
370 5 0.061892 0.171489 0.0732726
371 6 0.0524601 0.157614 0.0754552
372 7 0.068128 0.171021 0.0592417
373 2 0.0463021 0.19846 0.10149
374 2 0.04334 0.22013 0.109909
375 2 0.0516026 0.237279 0.106635
376 2 0.0470816 0.25926 0.104608
377 2 0.0408456 0.266899 0.123472
378 2 0.0361686 0.288569 0.119575
379 2 0.0300106 0.298079 0.137815
380 3 0.0189418 0.293091 0.140465
381 4 0.015512 0.306342 0.157302
382 5 0.00639187 0.317411 0.158705
383 6 0 0.31632 0.13875
384 7 0.00405338 0.326921 0.174139
385 2 0.0157458 0.271421 0.143895
386 2 0.0172269 0.261443 0.165565
387 2 0.0282178 0.260196 0.174451
388 2 0.0286855 0.248192 0.195186
389 2 0.0388189 0.250062 0.208125
390 2 0.0491083 0.246009 0.196745
391 2 0.0536293 0.263626 0.183026
392 3 0.0579166 0.282645 0.193003
393 4 0.0590079 0.281242 0.215297
394 5 0.0677382 0.275006 0.225898
395 6 0.0760009 0.265808 0.211867
396 7 0.0683618 0.276565 0.244606
397 2 0.0524601 0.301977 0.187547
398 2 0.0423266 0.308057 0.198927
399 2 0.0434179 0.318346 0.220442
400 2 0.0454446 0.342199 0.220442
401 2 0.0559678 0.349994 0.212023
402 2 0.0657115 0.340952 0.22278
403 2 0.0666469 0.347032 0.245853
404 3 0.0755332 0.338301 0.256922
405 4 0.0748316 0.342199 0.27906
406 5 0.0705444 0.329727 0.294026
407 6 0.0642305 0.311954 0.284828
408 7 0.0717916 0.333001 0.312422
409 2 0.0854328 0.347811 0.250686
410 2 0.0952544 0.339393 0.261755
411 2 0.100243 0.319438 0.252869
412 2 0.0930718 0.300418 0.251621
413 2 0.0989181 0.279839 0.247568
414 2 0.104452 0.278436 0.226522
415 2 0.107804 0.255987 0.222
416 3 0.11404 0.251933 0.203448
417 4 0.11482 0.229484 0.201734
418 5 0.12355 0.217947 0.197836
419 6 0.133372 0.229484 0.203448
420 7 0.122927 0.200486 0.190821
421 2 0.109441 0.260196 0.184273
422 2 0.114898 0.25318 0.164006
423 2 0.109909 0.262846 0.144674
424 2 0.113183 0.252401 0.124096
425 2 0.124797 0.25318 0.118639
426 2 0.12924 0.275162 0.11521
427 2 0.140153 0.273915 0.105388
428 3 0.145298 0.293558 0.100243
429 4 0.15473 0.288258 0.0891744
430 5 0.157146 0.297456 0.0707782
431 6 0.167358 0.288258 0.0636069
432 7 0.151924 0.310395 0.0620479
433 2 0.148104 0.306342 0.118172
434 2 0.149819 0.329259 0.112247
435 2 0.153405 0.343446 0.130176
436 2 0.154028 0.366363 0.122849
437 2 0.143739 0.378523 0.123316
438 2 0.139764 0.385071 0.14483
439 2 0.145298 0.403467 0.155432
440 3 0.156133 0.401596 0.162447
441 4 0.158316 0.419837 0.174919
442 5 0.164474 0.435115 0.167436
443 6 0.165097 0.45164 0.184273
444 7 0.168605 0.435427 0.150599
445 2 0.158394 0.3832 0.174919
446 2 0.169307 0.382577 0.184741
447 2 0.178738 0.382265 0.16993
448 1 0.17944 0.362778 0.156211
531 6 0.0075767 0.546583 0.253336
533 2 0.00796645 0.589455 0.271421
534 2 0.0110844 0.611904 0.277033
535 2 0.00827825 0.62843 0.260664
536 2 0.0120198 0.650256 0.267055
537 2 0.0088239 0.667716 0.252089
635 2 0.833281 0.62235 0.458344
636 3 0.82229 0.615958 0.457564
637 4 0.815821 0.632327 0.465827
638 5 0.810052 0.629053 0.483132
639 6 0.804362 0.649164 0.487497
640 7 0.809585 0.612996 0.492797
641 2 0.818627 0.610969 0.436674
642 2 0.807246 0.603174 0.436362
643 2 0.802647 0.599433 0.414536
644 2 0.80826 0.582907 0.401285
645 2 0.808493 0.561081 0.41095
646 2 0.813794 0.544712 0.397075
647 2 0.825253 0.549233 0.391619
648 3 0.832346 0.554222 0.408768
653 2 0.833203 0.537852 0.424514
658 2 0.835308 0.543932 0.499033
659 2 0.834684 0.525536 0.514312
661 4 0.829384 0.489835 0.515403
662 5 0.819484 0.486873 0.508855
663 6 0.814885 0.470036 0.522107
664 7 0.815353 0.496227 0.49498
678 2 0.833983 0.489835 0.374782
680 2 0.827357 0.502931 0.339237
681 2 0.818783 0.517897 0.346252
682 2 0.809351 0.518365 0.331598
683 2 0.800153 0.530681 0.340484
684 3 0.790331 0.527875 0.329259
685 4 0.790253 0.539879 0.310239
686 5 0.792202 0.530837 0.291687
687 6 0.790955 0.547362 0.275318
688 7 0.79454 0.512908 0.288881
689 2 0.781367 0.534734 0.341575
690 2 0.770688 0.527719 0.333001
691 2 0.769207 0.504022 0.33456
692 2 0.758606 0.496071 0.326765
693 2 0.757592 0.472063 0.326921
694 2 0.766011 0.461774 0.313202
695 2 0.764686 0.438545 0.308057
696 3 0.755644 0.431061 0.296209
697 4 0.758762 0.41095 0.288258
698 5 0.752058 0.394581 0.287946
699 6 0.757904 0.376341 0.278592
700 7 0.743172 0.395049 0.294182
701 2 0.752448 0.444936 0.279371
702 2 0.743405 0.437297 0.265652
703 2 0.73943 0.45507 0.251621
704 2 0.73031 0.449146 0.237435
705 2 0.73335 0.435582 0.218571
706 2 0.724308 0.432309 0.203293
707 2 0.716357 0.415783 0.21062
708 3 0.706379 0.416251 0.199707
709 4 0.701391 0.435427 0.206411
710 5 0.690945 0.436674 0.20797
711 6 0.688451 0.4585 0.215453
712 7 0.684943 0.422799 0.204228
713 2 0.706613 0.415627 0.176946
714 2 0.712537 0.397543 0.1665
715 2 0.712382 0.399258 0.142648
716 2 0.701858 0.393957 0.13267
717 2 0.701547 0.397699 0.109129
718 2 0.691101 0.391463 0.0993078
719 2 0.690634 0.394425 0.0754552
720 3 0.691725 0.415471 0.0671926
721 4 0.692426 0.412977 0.044899
722 5 0.697805 0.425293 0.0310239
723 6 0.704976 0.440571 0.0419369
724 7 0.696792 0.423266 0.0126278
725 2 0.683306 0.42997 0.072649
726 2 0.672705 0.425917 0.0622038
727 2 0.664754 0.442754 0.0682839
728 2 0.654387 0.443066 0.0561237
729 2 0.647527 0.423578 0.0578386
730 2 0.649866 0.406585 0.0416251
731 2 0.642539 0.38741 0.0431841
732 3 0.643006 0.376808 0.0632951
733 4 0.65353 0.373379 0.0712459
734 5 0.661558 0.36153 0.0639187
735 6 0.660155 0.354671 0.0416251
736 7 0.669042 0.357633 0.0746757
737 2 0.63677 0.357945 0.0671926
738 2 0.625468 0.356542 0.0592417
739 2 0.624143 0.350617 0.0363245
740 2 0.629209 0.329883 0.0299327
741 2 0.624065 0.309928 0.0383512
742 2 0.630612 0.290752 0.032427
743 2 0.624688 0.269862 0.0332065
744 3 0.631158 0.251933 0.0274383
745 4 0.625779 0.237123 0.0140309
746 5 0.616192 0.229484 0.0180843
747 6 0.613308 0.215609 0
748 7 0.610969 0.233537 0.0330506
749 2 0.636926 0.241956 0.0445872
750 2 0.63069 0.228081 0.0595535
751 2 0.637394 0.218103 0.0767024
752 2 0.63108 0.203448 0.0905775
753 2 0.637004 0.194874 0.109597
754 2 0.629833 0.18209 0.123784
755 2 0.635056 0.171957 0.14296
756 3 0.64324 0.156835 0.137659
757 4 0.638875 0.142024 0.123316
758 5 0.644487 0.135476 0.106635
759 6 0.63755 0.120978 0.094319
760 7 0.653374 0.140621 0.102738
761 2 0.647995 0.146857 0.156211
762 2 0.645657 0.123628 0.16042
763 2 0.634354 0.118016 0.166033
764 2 0.632873 0.0944749 0.169618
765 2 0.638719 0.0854328 0.188638
766 2 0.637394 0.0617361 0.190665
767 2 0.64324 0.0520703 0.209373
768 3 0.638251 0.0494201 0.229795
769 4 0.633497 0.0293091 0.234784
770 5 0.627728 0.0140309 0.22543
771 6 0.626559 0.0166812 0.202201
772 7 0.624221 0 0.235876
773 2 0.632327 0.0667249 0.238526
774 2 0.621336 0.072649 0.230887
775 2 0.612528 0.0569032 0.234628
776 2 0.601615 0.0661013 0.230887
777 2 0.597562 0.066569 0.208281
778 2 0.604499 0.0779496 0.192536
779 2 0.59951 0.0826266 0.171333
780 3 0.596081 0.0648541 0.158394
781 4 0.602473 0.046458 0.160732
782 5 0.611515 0.0450549 0.150131
783 6 0.61588 0.0238526 0.153561
784 7 0.615256 0.0589299 0.139842
785 2 0.585168 0.0589299 0.161044
786 2 0.581816 0.0420928 0.145298
787 2 0.569968 0.0405338 0.141712
788 2 0.565213 0.0595535 0.130488
789 2 0.567863 0.0609566 0.107103
790 2 0.570046 0.0832502 0.0997755
791 2 0.581426 0.0896421 0.104297
792 3 0.584076 0.111312 0.0991519
793 4 0.594054 0.113651 0.0887067
794 5 0.604032 0.108662 0.0940072
795 6 0.604655 0.0946308 0.112871
796 7 0.611359 0.114898 0.0840297
797 2 0.582206 0.125499 0.116769
798 2 0.584622 0.148884 0.113651
799 2 0.596081 0.155432 0.110688
800 2 0.603642 0.148728 0.127993
801 2 0.604967 0.164006 0.146233
802 2 0.595301 0.172113 0.157614
803 2 0.599043 0.184117 0.176946
804 3 0.592183 0.197524 0.189106
805 4 0.597406 0.198616 0.209217
806 5 0.592183 0.204228 0.226677
807 6 0.599978 0.20454 0.244138
808 7 0.582985 0.208281 0.227613
809 2 0.591326 0.218727 0.181155
810 2 0.585402 0.223871 0.1612
811 2 0.573553 0.220442 0.161823
812 2 0.56989 0.198616 0.155587
813 2 0.557963 0.197368 0.155276
814 2 0.553442 0.177725 0.145142
815 2 0.556716 0.173048 0.122537
816 3 0.556482 0.190041 0.107415
817 4 0.562952 0.18552 0.0891744
818 5 0.561861 0.171489 0.0732726
819 6 0.552429 0.157614 0.0754552
820 7 0.568097 0.171021 0.0592417
821 2 0.546349 0.19846 0.10149
822 2 0.543309 0.22013 0.109909
823 2 0.551571 0.237279 0.106635
824 2 0.54705 0.25926 0.104608
825 2 0.540892 0.266899 0.123472
826 2 0.536137 0.288569 0.119575
827 2 0.530057 0.298079 0.137815
828 3 0.518989 0.293091 0.140465
829 4 0.515559 0.306342 0.157302
830 5 0.506439 0.317411 0.158705
831 6 0.500047 0.31632 0.13875
832 7 0.5041 0.326921 0.174139
833 2 0.515793 0.271421 0.143895
834 2 0.517196 0.261443 0.165565
835 2 0.528265 0.260196 0.174451
836 2 0.528654 0.248192 0.195186
837 2 0.538788 0.250062 0.208125
838 2 0.549155 0.246009 0.196745
839 2 0.553676 0.263626 0.183026
840 3 0.557963 0.282645 0.193003
841 4 0.559055 0.281242 0.215297
842 5 0.567707 0.275006 0.225898
843 6 0.57597 0.265808 0.211867
844 7 0.568331 0.276565 0.244606
845 2 0.552507 0.301977 0.187547
846 2 0.542295 0.308057 0.198927
847 2 0.543465 0.318346 0.220442
848 2 0.545413 0.342199 0.220442
849 2 0.555937 0.349994 0.212023
850 2 0.56568 0.340952 0.22278
851 2 0.566616 0.347032 0.245853
852 3 0.57558 0.338301 0.256922
853 4 0.574878 0.342199 0.27906
854 5 0.570513 0.329727 0.294026
855 6 0.564199 0.311954 0.284828
856 7 0.57176 0.333001 0.312422
857 2 0.585402 0.347811 0.250686
858 2 0.595223 0.339393 0.261755
859 2 0.600212 0.319438 0.252869
860 2 0.593119 0.300418 0.251621
861 2 0.598887 0.279839 0.247568
862 2 0.604499 0.278436 0.226522
863 2 0.607773 0.255987 0.222
864 3 0.614087 0.251933 0.203448
865 4 0.614789 0.229484 0.201734
866 5 0.623519 0.217947 0.197836
867 6 0.633341 0.229484 0.203448
868 7 0.622973 0.200486 0.190821
869 2 0.609488 0.260196 0.184273
870 2 0.614867 0.25318 0.164006
871 2 0.609878 0.262846 0.144674
872 2 0.613152 0.252401 0.124096
873 2 0.624766 0.25318 0.118639
874 2 0.629209 0.275162 0.11521
875 2 0.640122 0.273915 0.105388
876 3 0.645267 0.293558 0.100243
877 4 0.654699 0.288258 0.0891744
878 5 0.657115 0.297456 0.0707782
879 6 0.667327 0.288258 0.0636069
880 7 0.651893 0.310395 0.0620479
881 2 0.648073 0.306342 0.118172
882 2 0.649866 0.329259 0.112247
883 2 0.653374 0.343446 0.130176
884 2 0.654075 0.366363 0.122849
885 2 0.643708 0.378523 0.123316
886 2 0.639732 0.385071 0.14483
887 2 0.645345 0.403467 0.155432
888 3 0.65618 0.401596 0.162447
889 4 0.658284 0.419837 0.174919
890 5 0.66452 0.435115 0.167436
891 6 0.665066 0.45164 0.184273
892 7 0.668652 0.435427 0.150599
893 2 0.658362 0.3832 0.174919
894 2 0.669275 0.382577 0.184741
895 2 0.678707 0.382265 0.16993
896 1 0.679409 0.362778 0.156211
449 1 0.845987 0.633574 0.152781
450 2 0.85043 0.611437 0.152781
451 2 0.849027 0.600368 0.131735
452 2 0.852925 0.577763 0.131423
453 2 0.846065 0.563108 0.144674
454 2 0.849495 0.540191 0.145142
455 2 0.860252 0.535202 0.154808
456 3 0.863136 0.546583 0.173672
457 4 0.873114 0.539411 0.181311
458 5 0.882935 0.546115 0.176322
459 6 0.882779 0.56342 0.160264
460 7 0.890496 0.538632 0.184429
461 2 0.856121 0.544244 0.191444
462 2 0.856744 0.563732 0.205475
463 2 0.851911 0.562017 0.227301
464 2 0.858303 0.549389 0.243047
465 2 0.869762 0.555937 0.246477
466 2 0.871633 0.57823 0.255051
467 2 0.872022 0.596626 0.239461
468 3 0.881844 0.600836 0.228548
469 4 0.880753 0.619388 0.215453
470 5 0.875062 0.619388 0.197836
471 6 0.875998 0.640902 0.188326
472 7 0.870152 0.604889 0.190821
473 2 0.886677 0.583375 0.217479
474 2 0.897122 0.588364 0.206722
475 2 0.906866 0.587272 0.220909
476 2 0.911153 0.565135 0.224651
477 2 0.904293 0.550324 0.237123
478 2 0.909906 0.530057 0.243047
479 2 0.903514 0.516494 0.258013
480 3 0.903826 0.522574 0.280151
481 4 0.914193 0.527875 0.287478
482 5 0.923157 0.516494 0.289817
483 6 0.921442 0.493421 0.287322
484 7 0.931264 0.524913 0.294026
485 2 0.89798 0.508231 0.293402
486 2 0.898525 0.511973 0.317099
487 2 0.892835 0.531149 0.325829
488 2 0.892991 0.530213 0.349682
489 2 0.886599 0.546583 0.361686
490 2 0.890263 0.569188 0.360439
491 2 0.884494 0.582595 0.376808
492 3 0.884338 0.605357 0.375249
493 4 0.876465 0.611593 0.390528
494 5 0.871866 0.630456 0.389748
495 6 0.864227 0.631548 0.407521
496 7 0.873581 0.643708 0.376808
497 2 0.894004 0.616893 0.378991
498 2 0.903904 0.608786 0.368546
499 2 0.913102 0.624221 0.368078
500 2 0.923079 0.61206 0.364025
501 2 0.933291 0.623909 0.360751
502 2 0.942489 0.608942 0.364804
503 2 0.953324 0.617205 0.359192
504 3 0.956832 0.620011 0.337678
505 4 0.964938 0.635601 0.340952
506 5 0.97172 0.646202 0.32848
507 6 0.97437 0.634354 0.308992
508 7 0.97515 0.663039 0.333624
509 2 0.960339 0.600992 0.326921
510 2 0.953168 0.581972 0.328636
511 2 0.955039 0.564667 0.312578
512 2 0.966341 0.55734 0.309616
513 2 0.967199 0.538164 0.295273
514 2 0.962522 0.540814 0.273447
515 2 0.964003 0.521327 0.259728
516 3 0.959014 0.522574 0.239149
517 4 0.957299 0.502619 0.228704
518 5 0.963613 0.486406 0.223559
519 6 0.973357 0.485002 0.236811
520 7 0.961119 0.474245 0.210308
521 2 0.963067 0.538164 0.224651
522 2 0.973825 0.534423 0.214985
523 2 0.977566 0.552351 0.200642
524 2 0.979047 0.573709 0.211088
525 2 0.985049 0.572618 0.231666
526 2 0.987933 0.59382 0.241176
527 2 0.988713 0.594132 0.265185
528 3 0.997209 0.583375 0.276098
529 4 0.995105 0.561081 0.277189
530 5 0.997131 0.544868 0.264093
532 7 0.991051 0.530525 0.262378
538 2 0.996976 0.67099 0.251621
539 2 0.993156 0.69001 0.239149
540 3 0.995261 0.689542 0.2167
541 4 0.995728 0.710121 0.206722
542 5 0.989414 0.727114 0.207034
543 6 0.980684 0.725555 0.22278
544 7 0.991207 0.741924 0.195965
545 2 0.98957 0.674264 0.204228
546 2 0.97819 0.678006 0.197836
547 2 0.97476 0.661169 0.18209
548 2 0.963613 0.663039 0.17336
549 2 0.955039 0.65883 0.189418
550 2 0.944048 0.65618 0.180375
551 2 0.935863 0.652282 0.197368
552 3 0.926041 0.643708 0.189573
553 4 0.929003 0.624221 0.179596
554 5 0.923937 0.614087 0.164006
555 6 0.915596 0.627494 0.154028
556 7 0.926197 0.596626 0.158861
557 2 0.91848 0.638563 0.205787
558 2 0.9124 0.6554 0.217635
559 2 0.905385 0.644176 0.233537
560 2 0.897512 0.657271 0.246009
561 2 0.889327 0.668184 0.232446
562 2 0.879038 0.672705 0.243982
563 2 0.880129 0.687827 0.262378
564 3 0.870229 0.692504 0.272824
565 4 0.865319 0.673017 0.278748
566 5 0.854873 0.671146 0.277189
567 6 0.851989 0.649476 0.28436
568 7 0.849027 0.684398 0.270953
569 2 0.871399 0.7056 0.291376
570 2 0.875998 0.727426 0.28779
571 2 0.876621 0.740833 0.307589
572 2 0.883715 0.732259 0.32505
573 2 0.894862 0.727582 0.317879
574 2 0.902734 0.724464 0.335807
575 2 0.899539 0.707627 0.351553
576 3 0.907801 0.701547 0.366051
577 4 0.906242 0.681591 0.376341
578 5 0.898993 0.675355 0.390839
579 6 0.889015 0.687671 0.389592
580 7 0.900708 0.661013 0.402532
581 2 0.911387 0.71776 0.38055
582 2 0.920585 0.711212 0.394581
583 2 0.930796 0.706379 0.383044
584 2 0.939371 0.698273 0.397387
585 2 0.94927 0.691257 0.385695
586 2 0.956754 0.678629 0.399258
587 2 0.965406 0.668028 0.386474
588 3 0.971876 0.652126 0.396608
589 4 0.977332 0.640434 0.380862
590 5 0.987076 0.643864 0.373067
591 6 0.992377 0.66226 0.3832
592 7 0.990818 0.632951 0.359815
593 2 0.965796 0.63716 0.408924
594 2 0.972266 0.618608 0.41703
595 2 0.966653 0.605824 0.433868
596 2 0.956052 0.596626 0.427787
597 2 0.949738 0.589455 0.446807
598 2 0.954337 0.570903 0.458656
599 2 0.948803 0.566538 0.479546
600 3 0.948725 0.584154 0.494201
601 4 0.958313 0.596159 0.49498
602 5 0.968212 0.591482 0.501216
603 6 0.969693 0.56872 0.506517
604 7 0.97476 0.604889 0.501996
605 2 0.944282 0.579166 0.514623
606 2 0.944905 0.597094 0.530525
607 2 0.939215 0.591949 0.550792
608 2 0.940384 0.608163 0.568253
609 2 0.937032 0.630456 0.563108
610 2 0.936798 0.643864 0.582907
611 2 0.933213 0.666469 0.579789
612 3 0.930718 0.67707 0.599277
613 4 0.939605 0.676759 0.613152
614 5 0.939683 0.663507 0.629677
615 6 0.949894 0.666937 0.641214
616 7 0.932901 0.651347 0.634042
617 2 0.927444 0.69874 0.596938
618 2 0.916999 0.702014 0.585713
619 2 0.913803 0.725087 0.583999
620 2 0.904216 0.728205 0.570123
621 2 0.893926 0.720722 0.579945
622 2 0.884806 0.720878 0.564355
623 2 0.884416 0.700923 0.550948
624 3 0.875608 0.69952 0.536605
625 4 0.877479 0.712148 0.518209
626 5 0.874361 0.732103 0.516962
627 6 0.877479 0.739898 0.495915
628 7 0.869996 0.741769 0.530525
629 2 0.873737 0.678473 0.52881
630 2 0.862746 0.675823 0.519456
631 2 0.861421 0.656648 0.505425
632 2 0.849963 0.653218 0.499345
633 2 0.848014 0.637316 0.481885
634 2 0.836243 0.634198 0.478299
649 4 0.842557 0.558431 0.400349
650 5 0.845208 0.578386 0.39614
651 6 0.856043 0.57823 0.387098
652 7 0.839673 0.593352 0.398946
654 2 0.841076 0.542218 0.44213
655 2 0.838816 0.562173 0.45429
656 2 0.845987 0.565758 0.47331
657 2 0.845987 0.548142 0.489524
660 3 0.83601 0.504802 0.504958
665 2 0.846533 0.496539 0.506361
666 2 0.84817 0.475493 0.495136
667 2 0.847078 0.47596 0.471127
668 2 0.855419 0.489212 0.460215
669 2 0.854484 0.489991 0.436362
670 2 0.85651 0.469101 0.425449
671 2 0.85955 0.470972 0.402376
672 3 0.851833 0.475804 0.385851
673 4 0.857446 0.481729 0.366987
674 5 0.863136 0.499189 0.362622
675 6 0.861187 0.516806 0.377588
676 7 0.868826 0.499813 0.347655
677 2 0.842713 0.488432 0.391307
679 2 0.836555 0.50106 0.354359
