896
 Atoms. Timestep: 0
1 20.79 64.71 -7.19
2 21.36 63.29 -7.19
2 21.17 62.58 -8.54
2 21.67 61.13 -8.56
2 20.8 60.19 -7.71
2 21.23 58.72 -7.68
2 22.61 58.4 -7.06
3 22.99 59.13 -5.85
4 24.26 58.67 -5.36
5 25.52 59.1 -5.68
6 25.51 60.21 -6.71
7 26.5 58.62 -5.16
2 22.09 58.98 -4.71
2 22.16 60.23 -3.81
2 21.55 60.12 -2.41
2 22.37 59.31 -1.4
2 23.84 59.73 -1.18
2 24.07 61.16 -0.63
2 24.12 62.34 -1.63
3 25.38 62.61 -2.33
4 25.24 63.8 -3.17
5 24.51 63.8 -4.3
6 24.63 65.18 -4.91
7 23.88 62.87 -4.75
2 26 61.49 -3.04
2 27.35 61.81 -3.73
2 28.59 61.74 -2.82
2 29.15 60.32 -2.58
2 28.26 59.37 -1.78
2 28.98 58.07 -1.4
2 28.16 57.2 -0.44
3 28.21 57.59 0.98
4 29.54 57.93 1.45
5 30.68 57.2 1.6
6 30.47 55.72 1.44
7 31.73 57.74 1.87
2 27.45 56.67 1.83
2 27.52 56.91 3.35
2 26.8 58.14 3.91
2 26.82 58.08 5.44
2 26 59.13 6.21
2 26.47 60.58 6.13
2 25.73 61.44 7.18
3 25.7 62.9 7.08
4 24.7 63.3 8.06
5 24.1 64.51 8.01
6 23.12 64.58 9.15
7 24.33 65.36 7.18
2 26.95 63.64 7.32
2 28.22 63.12 6.65
2 29.39 64.11 6.62
2 30.68 63.33 6.36
2 31.99 64.09 6.15
2 33.16 63.13 6.41
2 34.56 63.66 6.05
3 35.01 63.84 4.67
4 36.05 64.84 4.88
5 36.92 65.52 4.08
6 37.26 64.76 2.83
7 37.35 66.6 4.41
2 35.46 62.62 3.98
2 34.53 61.4 4.09
2 34.78 60.29 3.06
2 36.22 59.82 2.87
2 36.33 58.59 1.95
2 35.74 58.76 0.55
2 35.92 57.51 -0.33
3 35.29 57.59 -1.65
4 35.07 56.31 -2.32
5 35.88 55.27 -2.65
6 37.13 55.18 -1.8
7 35.55 54.49 -3.5
2 35.8 58.59 -2.58
2 37.18 58.35 -3.2
2 37.67 59.5 -4.12
2 37.85 60.87 -3.45
2 38.63 60.8 -2.13
2 38.99 62.16 -1.52
2 39.09 62.18 0.02
3 40.19 61.49 0.72
4 39.92 60.06 0.79
5 40.17 59.02 -0.05
6 41.52 59.13 -0.74
7 39.4 58.1 -0.16
2 41.57 61.88 0.42
2 41.97 63.32 0.78
2 41.61 64.38 -0.27
2 42.09 65.78 0.14
2 41.67 66.9 -0.82
2 40.16 67.11 -0.85
2 39.67 68.33 -1.65
3 39.94 68.3 -3.09
4 40 69.62 -3.73
5 39.19 70.71 -3.71
6 38.06 70.61 -2.7
7 39.41 71.66 -4.42
2 39.21 67.32 -3.89
2 37.75 67.56 -4.3
2 37.31 66.48 -5.31
2 35.88 66.6 -5.87
2 34.78 66.33 -4.84
2 33.37 66.16 -5.42
2 32.31 65.91 -4.33
3 31.06 65.36 -4.83
4 31.44 64.11 -5.47
5 30.78 63.46 -6.47
6 29.72 64.32 -7.11
7 31.08 62.34 -6.8
2 30.09 65.03 -3.79
2 29.31 66.11 -3.03
2 28.41 65.39 -2.01
2 27.4 66.23 -1.21
2 26.34 66.93 -2.08
2 25.03 67.22 -1.34
2 25.16 68.19 -0.16
3 23.9 68.49 0.51
4 23.27 67.24 0.89
5 21.92 67.12 0.79
6 21.56 65.73 1.25
7 21.17 67.97 0.39
2 24.05 69.33 1.7
2 24.63 70.73 1.47
2 24.71 71.59 2.74
2 25.62 71.04 3.86
2 27.06 70.74 3.4
2 28.07 70.54 4.55
2 27.66 69.46 5.56
3 28.72 69.07 6.49
4 28.51 67.79 7.15
5 27.59 67.39 8.08
6 26.3 68.18 8
7 27.8 66.47 8.83
2 29.17 70.11 7.42
2 30.36 69.69 8.32
2 31.67 69.38 7.58
2 32.77 68.86 8.5
2 34.03 68.41 7.75
2 35 67.6 8.62
2 36.1 66.92 7.8
3 36.93 65.9 8.45
4 37.63 65.15 7.44
5 38.89 65.37 6.94
6 39.57 66.55 7.59
7 39.36 64.67 6.09
2 36.16 64.94 9.24
2 36.98 63.75 9.76
2 36.27 62.93 10.84
2 34.9 62.34 10.45
2 34.09 61.88 11.67
2 34.68 60.69 12.43
2 33.98 60.41 13.77
3 33.96 61.54 14.71
4 35.19 62.31 14.76
5 36.46 62.01 15.16
6 36.65 60.55 15.5
7 37.31 62.87 15.21
2 33.4 61.22 16.02
2 33.48 62.37 17.04
2 32.74 62.04 18.34
2 32.9 63.08 19.46
2 32.47 64.51 19.13
2 32.44 65.37 20.4
2 31.98 66.82 20.2
3 31.66 67.5 21.45
4 32.79 67.48 22.34
5 32.81 66.63 23.4
6 34.11 66.85 24.14
7 31.93 65.85 23.68
2 31.23 68.89 21.3
2 29.9 69.1 20.58
2 29.49 70.58 20.47
2 28.25 70.78 19.58
2 26.94 70.3 20.21
2 25.77 70.31 19.21
2 25.71 69.03 18.35
3 24.58 68.94 17.43
4 24.83 69.75 16.25
5 24.43 71.03 16.17
6 24.83 71.53 14.82
7 23.86 71.65 17.04
2 24.35 67.59 16.93
2 22.94 67.42 16.33
2 22.77 66.19 15.43
2 21.3 65.97 15.04
2 21.04 64.95 13.92
2 19.54 64.75 13.69
2 19.16 63.99 12.41
3 17.75 63.58 12.36
4 16.91 64.63 12.89
5 16.17 64.42 14
6 15.45 65.71 14.28
7 16.11 63.39 14.62
2 17.27 63.26 11.02
2 15.82 62.76 11
2 15.23 62.52 9.6
2 15.95 61.46 8.75
2 15.98 60.06 9.37
2 16.66 59.01 8.48
2 18.13 59.3 8.13
3 19.03 59.62 9.23
4 20.35 59.89 8.69
5 20.69 61.17 8.42
6 22.07 61.16 7.84
7 19.98 62.13 8.6
2 19.14 58.57 10.24
2 20.15 58.85 11.37
2 19.87 60.13 12.15
2 20.79 60.36 13.37
2 20.79 59.23 14.41
2 19.41 58.96 15.02
2 19.34 57.78 16
3 19.5 56.45 15.4
4 18.66 55.49 16.07
5 17.39 55.3 15.65
6 16.79 54.22 16.5
7 16.86 55.9 14.76
2 20.86 55.92 15.49
2 21.06 54.57 14.77
2 20.93 54.6 13.23
2 21.99 55.45 12.53
2 21.87 55.5 11
2 22.13 54.16 10.3
2 22.53 54.28 8.82
3 21.54 54.59 7.76
4 22.25 54.97 6.55
5 22.98 56.09 6.27
6 22.74 57.22 7.23
7 23.71 56.13 5.31
2 20.37 55.4 8.11
2 19.24 55.49 7.05
2 19.58 56.21 5.74
2 18.39 56.33 4.77
2 17.29 57.29 5.22
2 16.09 57.32 4.28
2 14.9 58.11 4.85
3 13.65 57.93 4.13
4 13.64 58.7 2.91
5 13.89 58.12 1.72
6 13.72 59.18 0.67
7 14.18 56.97 1.54
2 12.5 58.37 4.92
2 11.13 57.92 4.37
2 10.93 56.4 4.47
2 9.57 55.89 3.97
2 9.45 54.35 3.98
2 10.52 53.69 3.1
2 10.36 52.2 2.77
3 9.2 51.72 2.01
4 9.59 50.43 1.5
5 8.74 49.38 1.48
6 9.48 48.21 0.88
7 7.6 49.41 1.88
2 8.79 52.61 0.93
2 7.62 52.12 0.05
2 7.11 53.26 -0.85
2 5.94 52.88 -1.76
2 6.34 52.01 -2.97
2 5.18 51.8 -3.95
2 4.16 50.74 -3.48
3 2.87 50.77 -4.18
4 2.24 52 -3.75
5 0.9 52.08 -3.65
6 0.58 53.48 -3.17
7 0.13 51.19 -3.89
2 2.91 50.73 -5.64
2 3.66 49.57 -6.31
2 3.64 49.68 -7.84
2 2.29 49.34 -8.48
2 2.25 49.58 -9.99
2 0.91 49.18 -10.62
2 0.85 49.37 -12.15
3 1 50.72 -12.68
4 1.09 50.56 -14.11
5 1.77 51.35 -15
6 2.7 52.33 -14.3
7 1.65 51.22 -16.18
2 -0.08 51.65 -12.33
2 -1.44 51.39 -13
2 -2.46 52.47 -12.61
2 -3.79 52.49 -13.39
2 -4.67 51.24 -13.28
2 -4.38 50.15 -14.32
2 -5.32 48.92 -14.22
3 -5.25 48.24 -12.93
4 -3.9 48.02 -12.42
5 -2.87 47.26 -12.89
6 -3.05 46.82 -14.32
7 -1.92 47.01 -12.2
2 -6.06 47.03 -12.68
2 -7.51 46.94 -13.19
2 -7.68 46.56 -14.66
2 -7.03 45.23 -15.07
2 -7.68 43.95 -14.53
2 -6.84 42.72 -14.91
2 -7.6 41.38 -14.86
3 -6.77 40.23 -15.23
4 -7.46 39.28 -16.09
5 -8.69 38.79 -15.83
6 -9.06 37.9 -16.99
7 -9.37 39.05 -14.87
2 -6.04 39.59 -14.13
2 -6.83 38.7 -13.17
2 -5.97 38.06 -12.07
2 -6.79 37.12 -11.18
2 -6.03 36.57 -9.96
2 -6.94 35.75 -9.05
2 -6.27 35.1 -7.82
3 -5.22 34.13 -8.16
4 -5.78 33.18 -9.08
5 -5.06 32.76 -10.15
6 -5.95 31.83 -10.94
7 -3.93 33.09 -10.4
2 -4.62 33.49 -6.97
2 -4.91 32 -6.7
2 -6.36 31.64 -6.34
2 -6.55 30.13 -6.11
2 -5.81 29.55 -4.89
2 -5.97 28.03 -4.76
2 -5.22 27.41 -3.56
3 -5.86 27.24 -2.25
4 -6.47 25.95 -1.93
5 -7.22 24.97 -2.53
6 -7.37 25.14 -4.02
7 -7.66 24.07 -1.86
2 -6.63 28.35 -1.69
2 -8.03 28.73 -2.18
2 -9.16 27.72 -1.94
2 -10.57 28.31 -2.18
2 -11.08 28.34 -3.63
2 -10.19 29.07 -4.64
2 -10.83 29.37 -6
3 -11.27 28.23 -6.83
4 -10.46 27.05 -6.68
5 -9.3 26.96 -7.36
6 -8.73 25.6 -7.14
7 -8.81 27.85 -8.02
2 -12.67 27.85 -6.66
2 -13.11 26.77 -7.67
2 -14.62 26.67 -7.9
2 -15.23 27.89 -8.62
2 -14.89 27.98 -10.12
2 -14.61 29.41 -10.59
2 -13.15 29.82 -10.3
3 -12.82 31.21 -10.63
4 -11.53 31.36 -11.3
5 -10.25 31.04 -10.96
6 -10.18 30.14 -9.75
7 -9.32 31.44 -11.6
2 -13.05 32.12 -9.5
2 -12.75 33.62 -9.7
2 -11.28 34.04 -9.89
2 -10.31 33.61 -8.78
2 -10.13 34.59 -7.61
2 -11.38 35.11 -6.88
2 -10.89 35.88 -5.64
3 -11.78 36.74 -4.86
4 -11.11 36.81 -3.57
5 -11.77 37.17 -2.45
6 -10.78 37.19 -1.33
7 -12.95 37.43 -2.39
2 -11.88 38.1 -5.37
2 -12.64 38.43 -6.65
2 -14.16 38.21 -6.61
2 -14.63 36.81 -7.01
2 -16.16 36.73 -7.03
2 -16.74 35.47 -7.68
2 -16.33 35.17 -9.13
3 -16.35 36.26 -10.1
4 -15.53 35.97 -11.27
5 -15.66 35.07 -12.29
6 -16.87 34.18 -12.15
7 -14.86 35.04 -13.19
2 -17.66 36.8 -10.48
2 -18.04 38.19 -9.94
2 -16.98 39.29 -10.15
2 -17.56 40.7 -10.28
2 -18.36 41.19 -9.07
2 -18.96 42.58 -9.32
2 -19.75 43.19 -8.15
3 -21.17 42.87 -7.98
4 -21.61 43.72 -6.9
5 -22.78 44.43 -6.81
6 -23.6 44.36 -8.09
7 -23.08 45.04 -5.82
2 -21.58 41.48 -7.76
2 -21.39 40.84 -6.37
2 -19.98 40.76 -5.8
2 -19.92 39.99 -4.47
2 -18.62 40.11 -3.64
2 -17.3 39.85 -4.37
2 -16.72 40.98 -5.25
3 -16.17 42.2 -4.61
4 -16.03 42.11 -3.18
5 -14.91 41.71 -2.5
6 -13.85 41.12 -3.4
7 -14.83 41.81 -1.3
2 -16.87 43.44 -4.96
2 -18.17 43.83 -4.23
2 -18.03 44.49 -2.85
2 -17.77 46.02 -2.85
2 -16.42 46.52 -3.39
2 -15.17 45.94 -2.7
2 -15.05 46.33 -1.22
3 -13.91 45.77 -0.51
4 -14 46.02 0.91
5 -14.55 45.22 1.87
6 -15.36 44.08 1.28
7 -14.39 45.43 3.05
2 -12.64 46.38 -0.91
2 -11.38 45.84 -0.2
2 -10.74 44.56 -0.77
2 -11.66 43.34 -0.85
2 -10.91 42.02 -1.11
2 -10.2 41.93 -2.46
2 -9.77 40.49 -2.75
3 -8.97 40.23 -3.94
4 -8.87 38.79 -4.05
5 -7.75 38.05 -4.3
6 -6.49 38.79 -3.94
7 -7.83 36.93 -4.75
2 -9.56 40.76 -5.17
2 -8.86 40.31 -6.47
2 -9.5 40.93 -7.71
2 -9.08 40.26 -9.03
2 -7.59 40.31 -9.38
2 -7.02 41.72 -9.6
2 -5.62 41.64 -10.23
3 -4.96 42.9 -10.56
4 -3.75 42.56 -11.27
5 -3.44 43.15 -12.45
6 -2.13 42.56 -12.91
7 -4.11 43.98 -13.01
2 -4.6 43.72 -9.41
2 -4.38 45.19 -9.79
2 -3.92 46.1 -8.64
2 -3.84 47.57 -9.11
2 -5.16 48.35 -9.08
2 -5.67 48.77 -7.7
2 -4.96 49.95 -7.02
3 -3.57 49.83 -6.57
4 -3.29 51 -5.77
5 -2.5 51.98 -6.25
6 -2.42 53.04 -5.17
7 -1.97 52 -7.33
2 -3.28 48.65 -5.77
2 -1.88 48.61 -5.14
2 -0.67 48.59 -6.09
1 -0.58 47.34 -6.97
1 84.93 64.71 -7.19
2 85.5 63.29 -7.19
2 85.32 62.58 -8.54
2 85.82 61.13 -8.56
2 84.94 60.19 -7.71
2 85.38 58.72 -7.68
2 86.76 58.4 -7.06
3 87.13 59.13 -5.85
4 88.41 58.67 -5.36
5 89.67 59.1 -5.68
6 89.65 60.21 -6.71
7 90.64 58.62 -5.16
2 86.23 58.98 -4.71
2 86.31 60.23 -3.81
2 85.69 60.12 -2.41
2 86.51 59.31 -1.4
2 87.98 59.73 -1.18
2 88.22 61.16 -0.63
2 88.27 62.34 -1.63
3 89.53 62.61 -2.33
4 89.39 63.8 -3.17
5 88.66 63.8 -4.3
6 88.78 65.18 -4.91
7 88.03 62.87 -4.75
2 90.15 61.49 -3.04
2 91.49 61.81 -3.73
2 92.74 61.74 -2.82
2 93.29 60.32 -2.58
2 92.41 59.37 -1.78
2 93.13 58.07 -1.4
2 92.31 57.2 -0.44
3 92.35 57.59 0.98
4 93.68 57.93 1.45
5 94.83 57.2 1.6
6 94.61 55.72 1.44
7 95.87 57.74 1.87
2 91.6 56.67 1.83
2 91.67 56.91 3.35
2 90.94 58.14 3.91
2 90.96 58.08 5.44
2 90.14 59.13 6.21
2 90.61 60.58 6.13
2 89.87 61.44 7.18
3 89.85 62.9 7.08
4 88.84 63.3 8.06
5 88.25 64.51 8.01
6 87.27 64.58 9.15
7 88.47 65.36 7.18
2 91.09 63.64 7.32
2 92.36 63.12 6.65
2 93.54 64.11 6.62
2 94.82 63.33 6.36
2 96.13 64.09 6.15
2 97.31 63.13 6.41
2 98.7 63.66 6.05
3 99.15 63.84 4.67
4 100.19 64.84 4.88
5 101.06 65.52 4.08
6 101.4 64.76 2.83
7 101.5 66.6 4.41
2 99.6 62.62 3.98
2 98.68 61.4 4.09
2 98.92 60.29 3.06
2 100.37 59.82 2.87
2 100.48 58.59 1.95
2 99.88 58.76 0.55
2 100.07 57.51 -0.33
3 99.43 57.59 -1.65
4 99.21 56.31 -2.32
5 100.02 55.27 -2.65
6 101.27 55.18 -1.8
7 99.7 54.49 -3.5
2 99.95 58.59 -2.58
2 101.33 58.35 -3.2
2 101.81 59.5 -4.12
2 102 60.87 -3.45
2 102.77 60.8 -2.13
2 103.14 62.16 -1.52
2 103.24 62.18 0.02
3 104.33 61.49 0.72
4 104.06 60.06 0.79
5 104.32 59.02 -0.05
6 -22.628 59.13 -0.74
7 103.54 58.1 -0.16
2 -22.578 61.88 0.42
2 -22.178 63.32 0.78
2 -22.538 64.38 -0.27
2 -22.058 65.78 0.14
2 -22.468 66.9 -0.82
2 104.3 67.11 -0.85
2 103.81 68.33 -1.65
3 104.08 68.3 -3.09
4 104.14 69.62 -3.73
5 103.33 70.71 -3.71
6 102.21 70.61 -2.7
7 103.56 71.66 -4.42
2 103.35 67.32 -3.89
2 101.89 67.56 -4.3
2 101.45 66.48 -5.31
2 100.02 66.6 -5.87
2 98.92 66.33 -4.84
2 97.51 66.16 -5.42
2 96.46 65.91 -4.33
3 95.2 65.36 -4.83
4 95.58 64.11 -5.47
5 94.93 63.46 -6.47
6 93.86 64.32 -7.11
7 95.22 62.34 -6.8
2 94.23 65.03 -3.79
2 93.45 66.11 -3.03
2 92.55 65.39 -2.01
2 91.54 66.23 -1.21
2 90.49 66.93 -2.08
2 89.17 67.22 -1.34
2 89.31 68.19 -0.16
3 88.04 68.49 0.51
4 87.41 67.24 0.89
5 86.07 67.12 0.79
6 85.7 65.73 1.25
7 85.32 67.97 0.39
2 88.19 69.33 1.7
2 88.78 70.73 1.47
2 88.86 71.59 2.74
2 89.77 71.04 3.86
2 91.2 70.74 3.4
2 92.21 70.54 4.55
2 91.8 69.46 5.56
3 92.86 69.07 6.49
4 92.66 67.79 7.15
5 91.73 67.39 8.08
6 90.45 68.18 8
7 91.95 66.47 8.83
2 93.32 70.11 7.42
2 94.5 69.69 8.32
2 95.81 69.38 7.58
2 96.91 68.86 8.5
2 98.18 68.41 7.75
2 99.14 67.6 8.62
2 100.25 66.92 7.8
3 101.08 65.9 8.45
4 101.78 65.15 7.44
5 103.03 65.37 6.94
6 103.71 66.55 7.59
7 103.51 64.67 6.09
2 100.3 64.94 9.24
2 101.13 63.75 9.76
2 100.41 62.93 10.84
2 99.05 62.34 10.45
2 98.24 61.88 11.67
2 98.83 60.69 12.43
2 98.12 60.41 13.77
3 98.11 61.54 14.71
4 99.34 62.31 14.76
5 100.61 62.01 15.16
6 100.8 60.55 15.5
7 101.45 62.87 15.21
2 97.54 61.22 16.02
2 97.62 62.37 17.04
2 96.89 62.04 18.34
2 97.04 63.08 19.46
2 96.61 64.51 19.13
2 96.58 65.37 20.4
2 96.12 66.82 20.2
3 95.8 67.5 21.45
4 96.94 67.48 22.34
5 96.95 66.63 23.4
6 98.26 66.85 24.14
7 96.08 65.85 23.68
2 95.38 68.89 21.3
2 94.04 69.1 20.58
2 93.63 70.58 20.47
2 92.4 70.78 19.58
2 91.08 70.3 20.21
2 89.91 70.31 19.21
2 89.86 69.03 18.35
3 88.73 68.94 17.43
4 88.97 69.75 16.25
5 88.57 71.03 16.17
6 88.97 71.53 14.82
7 88.01 71.65 17.04
2 88.49 67.59 16.93
2 87.08 67.42 16.33
2 86.91 66.19 15.43
2 85.44 65.97 15.04
2 85.19 64.95 13.92
2 83.68 64.75 13.69
2 83.3 63.99 12.41
3 81.89 63.58 12.36
4 81.06 64.63 12.89
5 80.32 64.42 14
6 79.59 65.71 14.28
7 80.26 63.39 14.62
2 81.42 63.26 11.02
2 79.96 62.76 11
2 79.37 62.52 9.6
2 80.09 61.46 8.75
2 80.12 60.06 9.37
2 80.8 59.01 8.48
2 82.27 59.3 8.13
3 83.18 59.62 9.23
4 84.49 59.89 8.69
5 84.83 61.17 8.42
6 86.22 61.16 7.84
7 84.12 62.13 8.6
2 83.29 58.57 10.24
2 84.3 58.85 11.37
2 84.01 60.13 12.15
2 84.93 60.36 13.37
2 84.93 59.23 14.41
2 83.56 58.96 15.02
2 83.48 57.78 16
3 83.65 56.45 15.4
4 82.8 55.49 16.07
5 81.53 55.3 15.65
6 80.94 54.22 16.5
7 81 55.9 14.76
2 85 55.92 15.49
2 85.21 54.57 14.77
2 85.07 54.6 13.23
2 86.14 55.45 12.53
2 86.02 55.5 11
2 86.28 54.16 10.3
2 86.67 54.28 8.82
3 85.68 54.59 7.76
4 86.4 54.97 6.55
5 87.13 56.09 6.27
6 86.88 57.22 7.23
7 87.86 56.13 5.31
2 84.51 55.4 8.11
2 83.39 55.49 7.05
2 83.72 56.21 5.74
2 82.54 56.33 4.77
2 81.44 57.29 5.22
2 80.23 57.32 4.28
2 79.05 58.11 4.85
3 77.79 57.93 4.13
4 77.78 58.7 2.91
5 78.03 58.12 1.72
6 77.87 59.18 0.67
7 78.33 56.97 1.54
2 76.64 58.37 4.92
2 75.27 57.92 4.37
2 75.08 56.4 4.47
2 73.72 55.89 3.97
2 73.59 54.35 3.98
2 74.67 53.69 3.1
2 74.5 52.2 2.77
3 73.34 51.72 2.01
4 73.74 50.43 1.5
5 72.88 49.38 1.48
6 73.63 48.21 0.88
7 71.74 49.41 1.88
2 72.93 52.61 0.93
2 71.77 52.12 0.05
2 71.26 53.26 -0.85
2 70.09 52.88 -1.76
2 70.48 52.01 -2.97
2 69.32 51.8 -3.95
2 68.3 50.74 -3.48
3 67.02 50.77 -4.18
4 66.38 52 -3.75
5 65.04 52.08 -3.65
6 64.72 53.48 -3.17
7 64.27 51.19 -3.89
2 67.05 50.73 -5.64
2 67.81 49.57 -6.31
2 67.79 49.68 -7.84
2 66.44 49.34 -8.48
2 66.4 49.58 -9.99
2 65.06 49.18 -10.62
2 65 49.37 -12.15
3 65.14 50.72 -12.68
4 65.23 50.56 -14.11
5 65.92 51.35 -15
6 66.84 52.33 -14.3
7 65.79 51.22 -16.18
2 64.06 51.65 -12.33
2 62.7 51.39 -13
2 61.68 52.47 -12.61
2 60.35 52.49 -13.39
2 59.47 51.24 -13.28
2 59.77 50.15 -14.32
2 58.83 48.92 -14.22
3 58.89 48.24 -12.93
4 60.24 48.02 -12.42
5 61.27 47.26 -12.89
6 61.09 46.82 -14.32
7 62.23 47.01 -12.2
2 58.09 47.03 -12.68
2 56.64 46.94 -13.19
2 56.47 46.56 -14.66
2 57.12 45.23 -15.07
2 56.46 43.95 -14.53
2 57.3 42.72 -14.91
2 56.54 41.38 -14.86
3 57.37 40.23 -15.23
4 56.68 39.28 -16.09
5 55.45 38.79 -15.83
6 55.08 37.9 -16.99
7 54.78 39.05 -14.87
2 58.11 39.59 -14.13
2 57.31 38.7 -13.17
2 58.17 38.06 -12.07
2 57.36 37.12 -11.18
2 58.12 36.57 -9.96
2 57.2 35.75 -9.05
2 57.87 35.1 -7.82
3 58.92 34.13 -8.16
4 58.36 33.18 -9.08
5 59.08 32.76 -10.15
6 58.19 31.83 -10.94
7 60.22 33.09 -10.4
2 59.53 33.49 -6.97
2 59.23 32 -6.7
2 57.78 31.64 -6.34
2 57.59 30.13 -6.11
2 58.34 29.55 -4.89
2 58.17 28.03 -4.76
2 58.92 27.41 -3.56
3 58.28 27.24 -2.25
4 57.67 25.95 -1.93
5 56.93 24.97 -2.53
6 56.78 25.14 -4.02
7 56.48 24.07 -1.86
2 57.52 28.35 -1.69
2 56.11 28.73 -2.18
2 54.98 27.72 -1.94
2 53.58 28.31 -2.18
2 53.06 28.34 -3.63
2 53.95 29.07 -4.64
2 53.31 29.37 -6
3 52.87 28.23 -6.83
4 53.69 27.05 -6.68
5 54.85 26.96 -7.36
6 55.41 25.6 -7.14
7 55.33 27.85 -8.02
2 51.47 27.85 -6.66
2 51.04 26.77 -7.67
2 49.52 26.67 -7.9
2 48.91 27.89 -8.62
2 49.25 27.98 -10.12
2 49.53 29.41 -10.59
2 50.99 29.82 -10.3
3 51.33 31.21 -10.63
4 52.61 31.36 -11.3
5 53.89 31.04 -10.96
6 53.97 30.14 -9.75
7 54.83 31.44 -11.6
2 51.09 32.12 -9.5
2 51.4 33.62 -9.7
2 52.87 34.04 -9.89
2 53.84 33.61 -8.78
2 54.01 34.59 -7.61
2 52.77 35.11 -6.88
2 53.25 35.88 -5.64
3 52.37 36.74 -4.86
4 53.04 36.81 -3.57
5 52.37 37.17 -2.45
6 53.37 37.19 -1.33
7 51.19 37.43 -2.39
2 52.26 38.1 -5.37
2 51.5 38.43 -6.65
2 49.98 38.21 -6.61
2 49.51 36.81 -7.01
2 47.98 36.73 -7.03
2 47.4 35.47 -7.68
2 47.82 35.17 -9.13
3 47.79 36.26 -10.1
4 48.62 35.97 -11.27
5 48.48 35.07 -12.29
6 47.27 34.18 -12.15
7 49.28 35.04 -13.19
2 46.49 36.8 -10.48
2 46.1 38.19 -9.94
2 47.16 39.29 -10.15
2 46.58 40.7 -10.28
2 45.79 41.19 -9.07
2 45.18 42.58 -9.32
2 44.4 43.19 -8.15
3 42.98 42.87 -7.98
4 42.54 43.72 -6.9
5 41.37 44.43 -6.81
6 40.55 44.36 -8.09
7 41.07 45.04 -5.82
2 42.57 41.48 -7.76
2 42.75 40.84 -6.37
2 44.17 40.76 -5.8
2 44.22 39.99 -4.47
2 45.52 40.11 -3.64
2 46.85 39.85 -4.37
2 47.43 40.98 -5.25
3 47.98 42.2 -4.61
4 48.12 42.11 -3.18
5 49.23 41.71 -2.5
6 50.29 41.12 -3.4
7 49.31 41.81 -1.3
2 47.28 43.44 -4.96
2 45.97 43.83 -4.23
2 46.12 44.49 -2.85
2 46.37 46.02 -2.85
2 47.72 46.52 -3.39
2 48.97 45.94 -2.7
2 49.09 46.33 -1.22
3 50.24 45.77 -0.51
4 50.15 46.02 0.91
5 49.59 45.22 1.87
6 48.78 44.08 1.28
7 49.75 45.43 3.05
2 51.5 46.38 -0.91
2 52.76 45.84 -0.2
2 53.4 44.56 -0.77
2 52.49 43.34 -0.85
2 53.23 42.02 -1.11
2 53.95 41.93 -2.46
2 54.37 40.49 -2.75
3 55.18 40.23 -3.94
4 55.27 38.79 -4.05
5 56.39 38.05 -4.3
6 57.65 38.79 -3.94
7 56.32 36.93 -4.75
2 54.59 40.76 -5.17
2 55.28 40.31 -6.47
2 54.64 40.93 -7.71
2 55.06 40.26 -9.03
2 56.55 40.31 -9.38
2 57.12 41.72 -9.6
2 58.52 41.64 -10.23
3 59.18 42.9 -10.56
4 60.39 42.56 -11.27
5 60.7 43.15 -12.45
6 62.01 42.56 -12.91
7 60.03 43.98 -13.01
2 59.54 43.72 -9.41
2 59.77 45.19 -9.79
2 60.22 46.1 -8.64
2 60.31 47.57 -9.11
2 58.98 48.35 -9.08
2 58.47 48.77 -7.7
2 59.19 49.95 -7.02
3 60.58 49.83 -6.57
4 60.85 51 -5.77
5 61.65 51.98 -6.25
6 61.72 53.04 -5.17
7 62.18 52 -7.33
2 60.86 48.65 -5.77
2 62.26 48.61 -5.14
2 63.47 48.59 -6.09
1 63.56 47.34 -6.97
