LAMMPS (2 Jun 2022)
OMP_NUM_THREADS environment is not set. Defaulting to 1 thread. (src/comm.cpp:98)
  using 1 OpenMP thread(s) per MPI task
# LAMMPS Input Script created with replicate_polymer_topology
# FF: ../../forcefields/trappe-ua.xml

#======1.Initialization======
units                real
boundary             p p p
dimension            3
atom_style           full

#======2.Force Field terms======
pair_style     hybrid lj/cut/coul/long 10.0 10.0
bond_style     hybrid harmonic
angle_style    hybrid harmonic
dihedral_style hybrid nharmonic multi/harmonic
improper_style hybrid umbrella
special_bonds lj 0.0 0.0 0.0 coul 0.0 0.0 0.0

#======3.Data======
read_data ETH-EVA_50wt_0000_noH_replicate_clean.lmp
Reading data file ...
  triclinic box = (-23.6 24.07 -16.99) to (104.688 88.214 47.154) with tilt (0 0 0)
  1 by 1 by 1 MPI processor grid
  reading atoms ...
  896 atoms
  scanning bonds ...
  2 = max bonds/atom
  scanning angles ...
  3 = max angles/atom
  scanning dihedrals ...
  3 = max dihedrals/atom
  scanning impropers ...
  1 = max impropers/atom
  reading bonds ...
  894 bonds
  reading angles ...
  1040 angles
  reading dihedrals ...
  1038 dihedrals
  reading impropers ...
  74 impropers
Finding 1-2 1-3 1-4 neighbors ...
  special bond factors lj:    0        0        0       
  special bond factors coul:  0        0        0       
     3 = max # of 1-2 neighbors
     4 = max # of 1-3 neighbors
     7 = max # of 1-4 neighbors
    10 = max # of special neighbors
  special bonds CPU = 0.000 seconds
  read_data CPU = 0.007 seconds

#======4.Modify Pairs======
pair_modify mix arithmetic #tail yes
kspace_style pppm 1e-6
kspace_modify gewald 0.1

#======5.Settings======
neigh_modify every 10 delay 20 check yes
thermo          450
thermo_style custom step cpu ebond eangle edihed eimp epair evdwl ecoul elong etail pe temp press lx ly lz density
dump       1 all dcd      100  dump.dcd
dump       2 all xyz    10000  dump_last.xyz
dump       3 all atom   10000  dump_last.atom
dump       4 all xtc      100  dump.xtc
restart    10000 restart.data

#======6.Minimization simulation======
run 0
WARNING: No fixes with time integration, atoms won't move (src/verlet.cpp:60)
PPPM initialization ...
  using 12-bit tables for long-range coulomb (src/kspace.cpp:342)
  G vector (1/distance) = 0.1
  grid = 25 16 16
  stencil order = 5
  estimated absolute RMS force accuracy = 0.19191483
  estimated relative force accuracy = 0.0005779458
  using double precision FFTW3
  3d grid and FFT values/proc = 13230 6400
Generated 21 of 21 mixed pair_coeff terms from arithmetic mixing rule
Neighbor list info ...
  update every 10 steps, delay 20 steps, check yes
  max neighbors/atom: 2000, page size: 100000
  master list distance cutoff = 12
  ghost atom cutoff = 12
  binsize = 6, bins = 22 11 11
  1 neighbor lists, perpetual/occasional/extra = 1 0 0
  (1) pair lj/cut/coul/long, perpetual
      attributes: half, newton on
      pair build: half/bin/newton/tri
      stencil: half/bin/3d/tri
      bin: standard
Per MPI rank memory allocation (min/avg/max) = 12.92 | 12.92 | 12.92 Mbytes
   Step          CPU           E_bond        E_angle        E_dihed        E_impro         E_pair         E_vdwl         E_coul         E_long         E_tail         PotEng          Temp          Press            Lx             Ly             Lz          Density    
         0   0              451.60119      405.30638      1468.0919      584.42983     -21.547499     -1.9864437      989.05446     -1008.6155      0              2887.8818      0              763.76617      128.288        64.144         64.144         0.040000496  
Loop time of 5.86e-07 on 1 procs for 0 steps with 896 atoms

170.6% CPU use with 1 MPI tasks x 1 OpenMP threads

MPI task timing breakdown:
Section |  min time  |  avg time  |  max time  |%varavg| %total
---------------------------------------------------------------
Pair    | 0          | 0          | 0          |   0.0 |  0.00
Bond    | 0          | 0          | 0          |   0.0 |  0.00
Kspace  | 0          | 0          | 0          |   0.0 |  0.00
Neigh   | 0          | 0          | 0          |   0.0 |  0.00
Comm    | 0          | 0          | 0          |   0.0 |  0.00
Output  | 0          | 0          | 0          |   0.0 |  0.00
Modify  | 0          | 0          | 0          |   0.0 |  0.00
Other   |            | 5.86e-07   |            |       |100.00

Nlocal:            896 ave         896 max         896 min
Histogram: 1 0 0 0 0 0 0 0 0 0
Nghost:            747 ave         747 max         747 min
Histogram: 1 0 0 0 0 0 0 0 0 0
Neighs:          33829 ave       33829 max       33829 min
Histogram: 1 0 0 0 0 0 0 0 0 0

Total # of neighbors = 33829
Ave neighs/atom = 37.75558
Ave special neighs/atom = 6.6339286
Neighbor list builds = 0
Dangerous builds = 0
#minimize 1.0e-8 1.0e-10 10000 10000

#======6.NVT simulation======
# timestep 1.0
# fix 1 all nvt temp 450 450 100.0 drag 0.1
# fix 2 all temp/csvr 450 450 500 54324  # Equivalent to v-rescale Gromacs
# run 10000

#======6.NPT simulation======
# fix 1 all npt temp 450 450 100.0 iso 1.0 1.0 1000.0 drag 1.0
# fix 2 all temp/csvr 450 450 500 54324  # Equivalent to v-rescale Gromacs
# run 10000

Total wall time: 0:00:00
