ITEM: TIMESTEP
0
ITEM: NUMBER OF ENTRIES
74
ITEM: BOX BOUNDS xy xz yz pp pp pp
-2.3600000000000001e+01 1.0468800000000000e+02 0.0000000000000000e+00
2.4070000000000000e+01 8.8213999999999999e+01 0.0000000000000000e+00
-1.6989999999999998e+01 4.7154000000000003e+01 0.0000000000000000e+00
ITEM: ENTRIES c_1[1] c_1[2] c_1[3] c_1[4] c_1[5] c_2 
13 8 9 7 1 125.017 
20 19 25 21 1 30.5444 
32 31 37 33 1 26.592 
44 43 49 45 2 37.3872 
56 55 61 57 1 37.1118 
68 67 73 69 1 26.7473 
80 79 85 81 1 26.04 
92 91 97 93 1 26.2235 
104 103 109 105 1 39.6018 
116 115 121 117 1 35.315 
128 127 133 129 1 27.0998 
140 139 145 141 1 36.3141 
152 151 157 153 1 26.2579 
164 163 169 165 1 34.3106 
176 175 181 177 1 36.9288 
188 187 193 189 1 35.0265 
200 199 205 201 1 35.2526 
212 211 217 213 1 36.0983 
224 223 229 225 1 27.3256 
236 235 241 237 1 35.3956 
248 247 253 249 1 36.0557 
260 259 265 261 1 37.0247 
272 271 277 273 1 36.1084 
284 283 289 285 1 27.7067 
296 295 301 297 1 27.7891 
308 307 313 309 1 33.029 
320 319 325 321 1 22.3472 
332 331 337 333 1 31.2922 
344 343 349 345 1 27.2684 
356 355 361 357 1 40.7015 
368 367 373 369 1 29.4077 
380 379 385 381 1 35.1017 
392 391 397 393 1 29.9766 
404 403 409 405 1 36.6503 
416 415 421 417 1 37.1614 
428 427 433 429 1 37.0119 
440 439 445 441 1 36.9114 
636 635 641 637 1 34.9431 
648 647 653 649 1 34.9309 
660 659 665 661 1 36.2596 
684 683 689 685 1 35.4116 
696 695 701 697 1 36.2753 
708 707 713 709 1 36.9963 
720 719 725 721 1 36.057 
732 731 737 733 1 28.1903 
744 743 749 745 1 27.6021 
756 755 761 757 1 32.8841 
768 767 773 769 1 22.1446 
780 779 785 781 1 31.2649 
792 791 797 793 1 26.6136 
804 803 809 805 1 40.4088 
816 815 821 817 1 29.3638 
828 827 833 829 1 35.1017 
840 839 845 841 1 29.9766 
852 851 857 853 1 36.7138 
864 863 869 865 1 37.461 
876 875 881 877 1 37.0119 
888 887 893 889 1 37.0814 
456 455 461 457 1 36.9862 
468 467 473 469 1 30.5444 
480 479 485 481 1 27.0293 
492 491 497 493 2 37.559 
504 503 509 505 1 37.1118 
516 515 521 517 1 26.987 
528 527 533 529 1 26.0363 
540 539 545 541 1 26.2235 
552 551 557 553 1 39.6785 
564 563 569 565 1 35.2678 
576 575 581 577 1 26.7409 
588 587 593 589 1 36.25 
600 599 605 601 1 25.7843 
612 611 617 613 1 34.7591 
624 623 629 625 1 36.5989 
672 671 677 673 1 27.433 
