ITEM: TIMESTEP
0
ITEM: NUMBER OF ATOMS
56500
ITEM: BOX BOUNDS xy xz yz pp pp pp
0.0000000000000000e+00 3.7640000000000001e+01 0.0000000000000000e+00
0.0000000000000000e+00 2.9184999999999999e+01 -0.0000000000000000e+00
0.0000000000000000e+00 4.6815499999999997e+02 -0.0000000000000000e+00
ITEM: ATOMS id type xs ys zs
1 1 0.146387 0.142196 0.00192244
2 2 0.149309 0.104506 0.001837
3 2 0.159139 0.157273 0
4 2 0.117694 0.151105 0.00187972
5 3 0.163656 0.161384 0.00461386
6 2 0.160468 0.199075 0.00461386
7 2 0.192614 0.153161 0.00457114
8 3 0.146652 0.140826 0.00730527
9 2 0.150106 0.103135 0.00728391
10 2 0.11796 0.148707 0.00732663
11 3 0.163921 0.160699 0.00999669
12 2 0.160468 0.198732 0.010018
13 2 0.19288 0.153161 0.00999669
14 3 0.147184 0.140483 0.0127095
15 2 0.150903 0.10245 0.0126881
16 2 0.118225 0.147679 0.0127095
17 3 0.164187 0.160356 0.0154009
18 2 0.160468 0.19839 0.0154009
19 2 0.193146 0.152818 0.0154009
20 3 0.147184 0.14014 0.0180923
21 2 0.118225 0.147679 0.0180923
22 2 0.150903 0.10245 0.0180923
23 3 0.164187 0.160356 0.0208051
24 2 0.193146 0.152476 0.0208051
25 2 0.160733 0.19839 0.0207837
26 3 0.146918 0.140483 0.0234965
27 2 0.118225 0.148364 0.0234965
28 2 0.150372 0.10245 0.0234965
29 3 0.164187 0.160699 0.0262093
30 2 0.19288 0.152818 0.0262093
31 2 0.160733 0.19839 0.0261879
32 3 0.146918 0.140826 0.0289007
33 2 0.11796 0.148364 0.0289007
34 2 0.150372 0.102793 0.0289007
35 3 0.163921 0.161042 0.0315921
36 2 0.19288 0.153161 0.0315921
37 2 0.160202 0.198732 0.0315921
38 3 0.146918 0.140826 0.0343049
39 2 0.11796 0.148364 0.0342835
40 2 0.150638 0.103135 0.0343049
41 3 0.163656 0.161384 0.0369963
42 2 0.192614 0.153846 0.0369963
43 2 0.159936 0.199075 0.0369963
44 3 0.146918 0.140826 0.0396877
45 2 0.11796 0.148364 0.0396877
46 2 0.150638 0.103135 0.0396877
47 3 0.163656 0.161384 0.0424005
48 2 0.192614 0.154189 0.0424005
49 2 0.159671 0.199075 0.0424005
50 3 0.146918 0.140826 0.0450919
51 2 0.117694 0.148364 0.0450919
52 2 0.150638 0.103135 0.0450919
53 3 0.163656 0.161384 0.0477833
54 2 0.192614 0.154189 0.0477833
55 2 0.159671 0.199075 0.0477833
56 3 0.146918 0.140826 0.0504961
57 2 0.117694 0.148021 0.0504961
58 2 0.150638 0.103135 0.0504747
59 3 0.163656 0.161042 0.0531875
60 2 0.192614 0.153846 0.0531875
61 2 0.159671 0.199075 0.0531875
62 3 0.146918 0.140826 0.0558789
63 2 0.117694 0.148021 0.0558789
64 2 0.150638 0.103135 0.0558789
65 3 0.16339 0.161042 0.0585917
66 2 0.192614 0.153846 0.0585917
67 2 0.159671 0.198732 0.0585917
68 3 0.146652 0.140483 0.0612831
69 2 0.117694 0.148021 0.0612831
70 2 0.150638 0.102793 0.0612831
71 3 0.16339 0.161042 0.0639745
72 2 0.192614 0.153846 0.0639745
73 2 0.159671 0.198732 0.0639745
74 3 0.146652 0.140826 0.0666873
75 2 0.117694 0.148021 0.0666873
76 2 0.150638 0.102793 0.0666873
77 3 0.163656 0.161042 0.0693787
78 2 0.192614 0.153846 0.0693787
79 2 0.159671 0.199075 0.0693787
80 3 0.146918 0.140826 0.0720915
81 2 0.117694 0.148021 0.0720915
82 2 0.150638 0.103135 0.0720915
83 3 0.163656 0.161042 0.0747829
84 2 0.192614 0.153846 0.0747829
85 2 0.159671 0.199075 0.0747829
86 3 0.146918 0.140826 0.0774743
87 2 0.117694 0.148021 0.0774743
88 2 0.150638 0.103135 0.0774743
89 3 0.163656 0.161042 0.0801871
90 2 0.192614 0.153846 0.0801871
91 2 0.159671 0.199075 0.0801871
92 3 0.146918 0.140826 0.0828785
93 2 0.117694 0.148021 0.0828785
94 2 0.150638 0.103135 0.0828785
95 3 0.163656 0.161042 0.08557
96 2 0.192614 0.153846 0.08557
97 2 0.159671 0.199075 0.08557
98 3 0.146918 0.140826 0.0882827
99 2 0.11796 0.148021 0.0882827
100 2 0.150903 0.103135 0.0882827
101 3 0.163656 0.161042 0.0909741
102 2 0.192614 0.153846 0.0909741
103 2 0.159671 0.199075 0.0909741
104 3 0.146918 0.140826 0.0936656
105 2 0.117694 0.148021 0.0936656
106 2 0.150638 0.103135 0.0936656
107 3 0.163656 0.161042 0.0963783
108 2 0.192614 0.153846 0.0963783
109 2 0.159671 0.199075 0.0963783
110 3 0.146652 0.140483 0.0990698
111 2 0.117694 0.148021 0.0990698
112 2 0.150638 0.102793 0.0990698
113 3 0.16339 0.161042 0.101783
114 2 0.192614 0.153846 0.101783
115 2 0.159671 0.198732 0.101783
116 3 0.146652 0.140483 0.104474
117 2 0.117694 0.148021 0.104474
118 2 0.150638 0.102793 0.104474
119 3 0.16339 0.161042 0.107165
120 2 0.192614 0.153846 0.107165
121 2 0.159671 0.199075 0.107165
122 3 0.146652 0.140826 0.109878
123 2 0.117694 0.148021 0.109878
124 2 0.150638 0.103135 0.109878
125 3 0.16339 0.161042 0.11257
126 2 0.192614 0.153846 0.11257
127 2 0.159671 0.199075 0.11257
128 3 0.146652 0.140826 0.115261
129 2 0.117694 0.148021 0.115261
130 2 0.150638 0.103135 0.115261
131 3 0.163656 0.161042 0.117974
132 2 0.192614 0.153846 0.117974
133 2 0.159671 0.199075 0.117974
134 3 0.146652 0.140826 0.120665
135 2 0.117694 0.148021 0.120665
136 2 0.150638 0.103135 0.120665
137 3 0.163656 0.161042 0.123357
138 2 0.192614 0.153846 0.123357
139 2 0.159671 0.199075 0.123357
140 3 0.146918 0.140826 0.126069
141 2 0.117694 0.148021 0.126069
142 2 0.150638 0.103135 0.126048
143 3 0.163656 0.161042 0.128761
144 2 0.192614 0.153846 0.128761
145 2 0.159671 0.199075 0.128761
146 3 0.146918 0.140483 0.131452
147 2 0.117694 0.147679 0.131452
148 2 0.150903 0.102793 0.131452
149 3 0.163656 0.161042 0.134144
150 2 0.192614 0.153846 0.134144
151 2 0.159405 0.198732 0.134165
152 3 0.146918 0.140483 0.136856
153 2 0.11796 0.147679 0.136856
154 2 0.150903 0.102793 0.136856
155 3 0.163656 0.161042 0.139548
156 2 0.192614 0.153846 0.139548
157 2 0.159671 0.198732 0.139548
158 3 0.146918 0.140483 0.142261
159 2 0.11796 0.147336 0.142261
160 2 0.151169 0.102793 0.142261
161 3 0.163656 0.161384 0.144952
162 2 0.192614 0.154189 0.144952
163 2 0.159671 0.199075 0.144931
164 3 0.147184 0.140826 0.147643
165 2 0.11796 0.147679 0.147643
166 2 0.151435 0.103135 0.147665
167 3 0.163656 0.161727 0.150335
168 2 0.19288 0.154874 0.150335
169 2 0.159671 0.199418 0.150313
170 3 0.147184 0.141511 0.153048
171 2 0.118225 0.148707 0.153048
172 2 0.151169 0.10382 0.153048
173 3 0.163921 0.162412 0.155739
174 2 0.19288 0.155217 0.155739
175 2 0.159936 0.200103 0.155718
176 3 0.147184 0.141854 0.15843
177 2 0.118225 0.149392 0.158452
178 2 0.150903 0.104163 0.15843
179 3 0.164453 0.16207 0.161122
180 2 0.193411 0.154531 0.161122
181 2 0.160733 0.200103 0.161143
182 3 0.147715 0.141854 0.163835
183 2 0.118757 0.150077 0.163856
184 2 0.150903 0.10382 0.163813
185 3 0.16525 0.161384 0.166526
186 2 0.193943 0.152818 0.166505
187 2 0.162062 0.199075 0.166547
188 3 0.148247 0.141168 0.169217
189 2 0.119554 0.150077 0.16926
190 2 0.150903 0.103135 0.169196
191 3 0.166047 0.160014 0.17193
192 2 0.19474 0.151105 0.171888
193 2 0.16339 0.198047 0.171952
194 3 0.148778 0.14014 0.174622
195 2 0.120085 0.149392 0.174643
196 2 0.151169 0.10245 0.174579
197 3 0.166578 0.158986 0.177313
198 2 0.195271 0.149734 0.177292
199 2 0.164453 0.197019 0.177334
200 3 0.149044 0.139455 0.180004
201 2 0.120616 0.148707 0.180026
202 2 0.151435 0.101422 0.180004
203 3 0.166844 0.1583 0.182696
204 2 0.195537 0.149392 0.182675
205 2 0.164453 0.196334 0.182717
206 3 0.149841 0.13877 0.185409
207 2 0.121148 0.147679 0.185451
208 2 0.152497 0.100737 0.185409
209 3 0.168172 0.157958 0.188079
210 2 0.196865 0.149392 0.188015
211 2 0.16525 0.195991 0.1881
212 3 0.1517 0.138427 0.190813
213 2 0.123273 0.147679 0.190898
214 2 0.154091 0.100737 0.19077
215 3 0.170829 0.157273 0.193462
216 2 0.199522 0.147679 0.193397
217 2 0.169766 0.195648 0.193355
218 3 0.15356 0.142196 0.196303
219 2 0.157545 0.170978 0.19784
220 2 0.124601 0.138427 0.196068
221 3 0.170829 0.0993661 0.197648
222 2 0.166578 0.100737 0.199998
223 2 0.200053 0.100051 0.197328
224 3 0.155951 0.0534521 0.196559
225 2 0.160733 0.0496831 0.194231
226 2 0.171626 0.0260408 0.197584
227 3 0.116366 0.045914 0.197349
228 2 0.113709 0.0123351 0.198439
229 2 0.107333 0.0722974 0.198908
230 3 0.0921892 0.045914 0.194722
231 2 0.0977683 0.0767518 0.193376
232 2 0.0977683 0.0147336 0.19344
233 3 0.0528693 0.0472846 0.195598
234 2 0.0486185 0.0219291 0.197349
235 2 0.0464931 0.0815487 0.196473
236 3 0.0273645 0.0352921 0.193163
237 2 0.000265675 0.0349495 0.19406
238 2 0.032678 0 0.192394
239 3 0.0278959 0.0702416 0.190663
240 2 0 0.0757238 0.18998
241 2 0.0382572 0.104163 0.19139
242 3 0.0496812 0.0531095 0.1881
243 2 0.0783741 0.0527668 0.188634
244 2 0.0414453 0.0174747 0.187587
245 3 0.043305 0.0832619 0.185451
246 2 0.0143464 0.0853178 0.185046
247 2 0.0536663 0.118211 0.185879
248 3 0.0619022 0.0633887 0.182824
249 2 0.0913921 0.0668151 0.183059
250 2 0.055526 0.0263834 0.182632
251 3 0.0499469 0.0877163 0.18009
252 2 0.020457 0.0856604 0.179919
253 2 0.0576514 0.124379 0.180197
254 3 0.0664187 0.0654446 0.17742
255 2 0.0959086 0.0698989 0.177484
256 2 0.0605739 0.0280966 0.17742
257 3 0.0518066 0.087031 0.174686
258 2 0.0223167 0.0825767 0.174643
259 2 0.0579171 0.124379 0.174664
260 3 0.0677471 0.064074 0.172037
261 2 0.0969713 0.068871 0.172037
262 2 0.0619022 0.0267261 0.17208
263 3 0.0520723 0.0846325 0.169282
264 2 0.0225824 0.0791502 0.169282
265 2 0.0571201 0.12198 0.169217
266 3 0.0680128 0.0620182 0.166633
267 2 0.097237 0.0675004 0.166611
268 2 0.0629649 0.0243276 0.166697
269 3 0.0520723 0.0818914 0.163899
270 2 0.022848 0.0757238 0.163877
271 2 0.0565887 0.119582 0.163835
272 3 0.0685441 0.060305 0.161229
273 2 0.0977683 0.0664725 0.161229
274 2 0.0640276 0.0226144 0.161271
275 3 0.0523379 0.0801782 0.158495
276 2 0.0231137 0.0733253 0.158495
277 2 0.0563231 0.117869 0.158452
278 3 0.0690755 0.0589344 0.155824
279 2 0.098034 0.0657872 0.155824
280 2 0.0650903 0.0212438 0.155867
281 3 0.0523379 0.0788076 0.153112
282 2 0.0233794 0.0712695 0.153112
283 2 0.0563231 0.116498 0.153069
284 3 0.0693411 0.0579065 0.15042
285 2 0.0982997 0.0651019 0.15042
286 2 0.065356 0.0198732 0.150442
287 3 0.0523379 0.0777797 0.147707
288 2 0.0233794 0.0702416 0.147707
289 2 0.0560574 0.11547 0.147686
290 3 0.0690755 0.0572212 0.145016
291 2 0.098034 0.0644167 0.145016
292 2 0.065356 0.0195306 0.145016
293 3 0.0523379 0.077437 0.142303
294 2 0.0233794 0.0702416 0.142325
295 2 0.0560574 0.11547 0.142303
296 3 0.0690755 0.0572212 0.139612
297 2 0.098034 0.0644167 0.139612
298 2 0.0650903 0.0195306 0.139612
299 3 0.0520723 0.0777797 0.13692
300 2 0.0231137 0.0702416 0.13692
301 2 0.0557917 0.11547 0.13692
302 3 0.0688098 0.0575638 0.134208
303 2 0.0977683 0.0647593 0.134208
304 2 0.0648247 0.0198732 0.134186
305 3 0.0518066 0.0781223 0.131516
306 2 0.022848 0.0709268 0.131516
307 2 0.0557917 0.116156 0.131516
308 3 0.0685441 0.0579065 0.128803
309 2 0.0975027 0.0651019 0.128803
310 2 0.064559 0.0202159 0.128782
311 3 0.0518066 0.0788076 0.126112
312 2 0.0225824 0.0716121 0.126112
313 2 0.055526 0.116498 0.126133
314 3 0.0682784 0.0585917 0.123399
315 2 0.097237 0.0654446 0.123399
316 2 0.0642933 0.0209011 0.123399
317 3 0.0515409 0.0791502 0.120708
318 2 0.0225824 0.0722974 0.120708
319 2 0.055526 0.116841 0.120729
320 3 0.0680128 0.0589344 0.118016
321 2 0.097237 0.0654446 0.117995
322 2 0.0640276 0.0209011 0.117995
323 3 0.0512752 0.0794929 0.115304
324 2 0.0223167 0.0726401 0.115325
325 2 0.055526 0.117183 0.115325
326 3 0.0680128 0.0589344 0.112612
327 2 0.0969713 0.0657872 0.112612
328 2 0.063762 0.0212438 0.112612
329 3 0.0512752 0.0794929 0.109921
330 2 0.0223167 0.0726401 0.109921
331 2 0.0552604 0.117183 0.109921
332 3 0.0680128 0.0589344 0.107208
333 2 0.0969713 0.0657872 0.107208
334 2 0.063762 0.0212438 0.107208
335 3 0.0512752 0.0794929 0.104517
336 2 0.0223167 0.0726401 0.104517
337 2 0.0552604 0.117183 0.104517
338 3 0.0680128 0.0589344 0.101804
339 2 0.0969713 0.0657872 0.101804
340 2 0.063762 0.0212438 0.101825
341 3 0.0512752 0.0791502 0.0991125
342 2 0.0223167 0.0722974 0.0991125
343 2 0.0552604 0.117183 0.0991125
344 3 0.0680128 0.0585917 0.0964211
345 2 0.097237 0.0657872 0.0964211
346 2 0.0640276 0.0209011 0.0964211
347 3 0.0515409 0.0791502 0.0937083
348 2 0.0223167 0.0719548 0.0937083
349 2 0.055526 0.116841 0.0937083
350 3 0.0682784 0.0585917 0.0910169
351 2 0.097237 0.0654446 0.0910169
352 2 0.0642933 0.0209011 0.0910169
353 3 0.0515409 0.0791502 0.0883041
354 2 0.0225824 0.0719548 0.0883041
355 2 0.055526 0.116841 0.0883041
356 3 0.0682784 0.0585917 0.0856127
357 2 0.0975027 0.0654446 0.0856127
358 2 0.0642933 0.0205585 0.0856127
359 3 0.0515409 0.0791502 0.0829213
360 2 0.0225824 0.0719548 0.0829213
361 2 0.055526 0.116841 0.0829213
362 3 0.0682784 0.0585917 0.0802085
363 2 0.097237 0.0654446 0.0802085
364 2 0.0642933 0.0209011 0.0802085
365 3 0.0515409 0.0791502 0.0775171
366 2 0.0225824 0.0719548 0.0775171
367 2 0.055526 0.116841 0.0775171
368 3 0.0682784 0.0585917 0.0748256
369 2 0.097237 0.0654446 0.0748256
370 2 0.0640276 0.0209011 0.0748256
371 3 0.0515409 0.0791502 0.0721129
372 2 0.0225824 0.0722974 0.0721129
373 2 0.055526 0.116841 0.0721129
374 3 0.0682784 0.0585917 0.0694215
375 2 0.097237 0.0654446 0.0694215
376 2 0.0640276 0.0209011 0.0694215
377 3 0.0515409 0.0791502 0.06673
378 2 0.0223167 0.0722974 0.06673
379 2 0.055526 0.116841 0.06673
380 3 0.0682784 0.0585917 0.0640173
381 2 0.097237 0.0654446 0.0640173
382 2 0.0640276 0.0209011 0.0640173
383 3 0.0515409 0.0791502 0.0613258
384 2 0.0223167 0.0719548 0.0613258
385 2 0.055526 0.116841 0.0613258
386 3 0.0680128 0.0585917 0.0586344
387 2 0.097237 0.0654446 0.0586344
388 2 0.0640276 0.0209011 0.0586344
389 3 0.0515409 0.0791502 0.0559216
390 2 0.0223167 0.0719548 0.0559216
391 2 0.055526 0.116841 0.0559216
392 3 0.0682784 0.0585917 0.0532302
393 2 0.097237 0.0654446 0.0532302
394 2 0.0640276 0.0205585 0.0532302
395 3 0.0515409 0.0791502 0.0505175
396 2 0.0225824 0.0719548 0.0505175
397 2 0.055526 0.116841 0.0505388
398 3 0.0682784 0.0585917 0.047826
399 2 0.097237 0.0654446 0.047826
400 2 0.0640276 0.0209011 0.047826
401 3 0.0515409 0.0791502 0.0451346
402 2 0.0225824 0.0722974 0.0451346
403 2 0.055526 0.116841 0.0451346
404 3 0.0682784 0.0589344 0.0424218
405 2 0.097237 0.0657872 0.0424432
406 2 0.0640276 0.0212438 0.0424218
407 3 0.0515409 0.0794929 0.0397304
408 2 0.0225824 0.0726401 0.0397304
409 2 0.0557917 0.117183 0.0397304
410 3 0.0682784 0.0589344 0.037039
411 2 0.097237 0.0657872 0.037039
412 2 0.0640276 0.0212438 0.0370177
413 3 0.0515409 0.0798355 0.0343262
414 2 0.0225824 0.0729827 0.0343262
415 2 0.0557917 0.117526 0.0343262
416 3 0.0682784 0.0589344 0.0316348
417 2 0.097237 0.0657872 0.0316348
418 2 0.0640276 0.0212438 0.0316348
419 3 0.0515409 0.0794929 0.028922
420 2 0.0225824 0.0726401 0.028922
421 2 0.0557917 0.117183 0.028922
422 3 0.0682784 0.0589344 0.0262306
423 2 0.097237 0.0654446 0.0262306
424 2 0.063762 0.0212438 0.0262306
425 3 0.0515409 0.0794929 0.0235392
426 2 0.0225824 0.0722974 0.0235179
427 2 0.055526 0.117183 0.0235392
428 3 0.0682784 0.0589344 0.0208264
429 2 0.097237 0.0657872 0.0208264
430 2 0.0642933 0.0212438 0.0208264
431 3 0.0515409 0.0791502 0.018135
432 2 0.0225824 0.0722974 0.018135
433 2 0.055526 0.117183 0.018135
434 3 0.0682784 0.0585917 0.0154436
435 2 0.0640276 0.0209011 0.0154436
436 2 0.097237 0.0654446 0.0154222
437 3 0.0515409 0.0791502 0.0127308
438 2 0.0557917 0.116841 0.0127308
439 2 0.0225824 0.0722974 0.0127308
440 3 0.0680128 0.0582491 0.0100394
441 2 0.063762 0.0205585 0.0100394
442 2 0.097237 0.0647593 0.0100394
443 3 0.0515409 0.0791502 0.00732663
444 2 0.0557917 0.116498 0.00732663
445 2 0.0225824 0.0722974 0.00732663
446 3 0.0682784 0.0582491 0.00463522
447 2 0.0640276 0.0205585 0.00461386
448 2 0.097237 0.0651019 0.00461386
449 1 0.0518066 0.0788076 0.0019438
450 2 0.064559 0.0633887 2.13604e-05
451 2 0.0560574 0.116498 0.00190108
452 2 0.022848 0.0716121 0.00187972
453 1 0.34644 0.142196 0.00192244
454 2 0.349362 0.104506 0.001837
455 2 0.359192 0.157273 0
456 2 0.317747 0.151105 0.00187972
457 3 0.363709 0.161384 0.00461386
458 2 0.360521 0.199075 0.00461386
459 2 0.392402 0.153161 0.00457114
460 3 0.346706 0.140826 0.00730527
461 2 0.350159 0.103135 0.00728391
462 2 0.317747 0.148707 0.00732663
463 3 0.363974 0.160699 0.00999669
464 2 0.360255 0.198732 0.010018
465 2 0.392933 0.153161 0.00999669
466 3 0.347237 0.140483 0.0127095
467 2 0.350956 0.10245 0.0126881
468 2 0.318278 0.147679 0.0127095
469 3 0.363974 0.160356 0.0154009
470 2 0.360521 0.19839 0.0154009
471 2 0.392933 0.152818 0.0154009
472 3 0.347237 0.14014 0.0180923
473 2 0.318278 0.147679 0.0180923
474 2 0.350956 0.10245 0.0180923
475 3 0.363974 0.160356 0.0208051
476 2 0.392933 0.152476 0.0208051
477 2 0.360786 0.19839 0.0207837
478 3 0.346971 0.140483 0.0234965
479 2 0.318013 0.148364 0.0234965
480 2 0.350425 0.10245 0.0234965
481 3 0.363974 0.160699 0.0262093
482 2 0.392933 0.152818 0.0262093
483 2 0.360786 0.19839 0.0261879
484 3 0.346971 0.140826 0.0289007
485 2 0.318013 0.148364 0.0289007
486 2 0.350425 0.102793 0.0289007
487 3 0.363974 0.161042 0.0315921
488 2 0.392933 0.153161 0.0315921
489 2 0.360255 0.198732 0.0315921
490 3 0.346971 0.140826 0.0343049
491 2 0.318013 0.148364 0.0342835
492 2 0.350691 0.103135 0.0343049
493 3 0.363709 0.161384 0.0369963
494 2 0.392667 0.153846 0.0369963
495 2 0.359989 0.199075 0.0369963
496 3 0.346971 0.140826 0.0396877
497 2 0.318013 0.148364 0.0396877
498 2 0.350691 0.103135 0.0396877
499 3 0.363709 0.161384 0.0424005
500 2 0.392667 0.154189 0.0424005
501 2 0.359724 0.199075 0.0424005
502 3 0.346706 0.140826 0.0450919
503 2 0.317747 0.148364 0.0450919
504 2 0.350691 0.103135 0.0450919
505 3 0.363443 0.161384 0.0477833
506 2 0.392667 0.154189 0.0477833
507 2 0.359724 0.199075 0.0477833
508 3 0.346706 0.140826 0.0504961
509 2 0.317747 0.148021 0.0504961
510 2 0.350691 0.103135 0.0504747
511 3 0.363443 0.161042 0.0531875
512 2 0.392667 0.153846 0.0531875
513 2 0.359724 0.199075 0.0531875
514 3 0.346706 0.140826 0.0558789
515 2 0.317747 0.148021 0.0558789
516 2 0.350691 0.103135 0.0558789
517 3 0.363443 0.161042 0.0585917
518 2 0.392667 0.153846 0.0585917
519 2 0.359724 0.198732 0.0585917
520 3 0.346706 0.140483 0.0612831
521 2 0.317747 0.148021 0.0612831
522 2 0.350691 0.102793 0.0612831
523 3 0.363443 0.161042 0.0639745
524 2 0.392402 0.153846 0.0639745
525 2 0.359724 0.198732 0.0639745
526 3 0.346706 0.140826 0.0666873
527 2 0.317747 0.148021 0.0666873
528 2 0.350691 0.102793 0.0666873
529 3 0.363443 0.161042 0.0693787
530 2 0.392667 0.153846 0.0693787
531 2 0.359724 0.199075 0.0693787
532 3 0.346706 0.140826 0.0720915
533 2 0.317747 0.148021 0.0720915
534 2 0.350691 0.103135 0.0720915
535 3 0.363443 0.161042 0.0747829
536 2 0.392667 0.153846 0.0747829
537 2 0.359724 0.199075 0.0747829
538 3 0.346706 0.140826 0.0774743
539 2 0.317747 0.148021 0.0774743
540 2 0.350691 0.103135 0.0774743
541 3 0.363443 0.161042 0.0801871
542 2 0.392667 0.153846 0.0801871
543 2 0.359724 0.199075 0.0801871
544 3 0.346706 0.140826 0.0828785
545 2 0.317747 0.148021 0.0828785
546 2 0.350691 0.103135 0.0828785
547 3 0.363709 0.161042 0.08557
548 2 0.392667 0.153846 0.08557
549 2 0.359724 0.199075 0.08557
550 3 0.346971 0.140826 0.0882827
551 2 0.317747 0.148021 0.0882827
552 2 0.350691 0.103135 0.0882827
553 3 0.363709 0.161042 0.0909741
554 2 0.392667 0.153846 0.0909741
555 2 0.359724 0.199075 0.0909741
556 3 0.346971 0.140826 0.0936656
557 2 0.317747 0.148021 0.0936656
558 2 0.350691 0.103135 0.0936656
559 3 0.363443 0.161042 0.0963783
560 2 0.392667 0.153846 0.0963783
561 2 0.359724 0.199075 0.0963783
562 3 0.346706 0.140483 0.0990698
563 2 0.317747 0.148021 0.0990698
564 2 0.350691 0.102793 0.0990698
565 3 0.363443 0.161042 0.101783
566 2 0.392402 0.153846 0.101783
567 2 0.359458 0.198732 0.101783
568 3 0.346706 0.140483 0.104474
569 2 0.317747 0.148021 0.104474
570 2 0.350691 0.102793 0.104474
571 3 0.363443 0.161042 0.107165
572 2 0.392402 0.153846 0.107165
573 2 0.359724 0.199075 0.107165
574 3 0.346706 0.140826 0.109878
575 2 0.317747 0.148021 0.109878
576 2 0.350691 0.103135 0.109878
577 3 0.363443 0.161042 0.11257
578 2 0.392667 0.153846 0.11257
579 2 0.359724 0.199075 0.11257
580 3 0.346706 0.140826 0.115261
581 2 0.317747 0.148021 0.115261
582 2 0.350691 0.103135 0.115261
583 3 0.363443 0.161042 0.117974
584 2 0.392667 0.153846 0.117974
585 2 0.359724 0.199075 0.117974
586 3 0.346706 0.140826 0.120665
587 2 0.317747 0.148021 0.120665
588 2 0.350691 0.103135 0.120665
589 3 0.363443 0.161042 0.123357
590 2 0.392667 0.153846 0.123357
591 2 0.359724 0.199075 0.123357
592 3 0.346706 0.140826 0.126069
593 2 0.317747 0.148021 0.126069
594 2 0.350691 0.103135 0.126048
595 3 0.363443 0.161042 0.128761
596 2 0.392667 0.153846 0.128761
597 2 0.359724 0.199075 0.128761
598 3 0.346971 0.140483 0.131452
599 2 0.317747 0.147679 0.131452
600 2 0.350956 0.102793 0.131452
601 3 0.363443 0.161042 0.134144
602 2 0.392667 0.153846 0.134144
603 2 0.359458 0.198732 0.134165
604 3 0.346971 0.140483 0.136856
605 2 0.318013 0.147679 0.136856
606 2 0.350956 0.102793 0.136856
607 3 0.363709 0.161042 0.139548
608 2 0.392667 0.153846 0.139548
609 2 0.359458 0.198732 0.139548
610 3 0.346971 0.140483 0.142261
611 2 0.318013 0.147336 0.142261
612 2 0.351222 0.102793 0.142261
613 3 0.363709 0.161384 0.144952
614 2 0.392667 0.154189 0.144952
615 2 0.359458 0.199075 0.144931
616 3 0.346971 0.140826 0.147643
617 2 0.318013 0.147679 0.147643
618 2 0.351222 0.103135 0.147665
619 3 0.363709 0.161727 0.150335
620 2 0.392667 0.154874 0.150335
621 2 0.359458 0.199418 0.150313
622 3 0.347237 0.141511 0.153048
623 2 0.318013 0.148707 0.153048
624 2 0.351222 0.10382 0.153048
625 3 0.363974 0.162412 0.155739
626 2 0.392933 0.155217 0.155739
627 2 0.359989 0.200103 0.155718
628 3 0.347237 0.141854 0.15843
629 2 0.318278 0.149392 0.158452
630 2 0.350956 0.104163 0.15843
631 3 0.364506 0.16207 0.161122
632 2 0.393199 0.154531 0.161122
633 2 0.360786 0.200103 0.161143
634 3 0.347768 0.141854 0.163835
635 2 0.31881 0.150077 0.163856
636 2 0.350956 0.10382 0.163813
637 3 0.365303 0.161384 0.166526
638 2 0.393996 0.152818 0.166505
639 2 0.362115 0.199075 0.166547
640 3 0.3483 0.141168 0.169217
641 2 0.319607 0.150077 0.16926
642 2 0.350956 0.103135 0.169196
643 3 0.3661 0.160014 0.17193
644 2 0.394793 0.151105 0.171888
645 2 0.363443 0.198047 0.171952
646 3 0.348831 0.14014 0.174622
647 2 0.320138 0.149392 0.174643
648 2 0.351222 0.10245 0.174579
649 3 0.366631 0.158986 0.177313
650 2 0.395324 0.149734 0.177292
651 2 0.36424 0.197019 0.177334
652 3 0.349097 0.139455 0.180004
653 2 0.320404 0.148707 0.180026
654 2 0.351488 0.101422 0.180004
655 3 0.366897 0.1583 0.182696
656 2 0.39559 0.149392 0.182675
657 2 0.364506 0.196334 0.182717
658 3 0.349894 0.13877 0.185409
659 2 0.321201 0.147679 0.185451
660 2 0.35255 0.100737 0.185409
661 3 0.36796 0.157958 0.188079
662 2 0.396918 0.149392 0.188015
663 2 0.365303 0.195991 0.1881
664 3 0.351753 0.138427 0.190813
665 2 0.323061 0.147679 0.190898
666 2 0.354145 0.100737 0.19077
667 3 0.370882 0.157273 0.193462
668 2 0.399575 0.147679 0.193397
669 2 0.369819 0.195648 0.193355
670 3 0.353613 0.142196 0.196303
671 2 0.357598 0.170978 0.19784
672 2 0.324389 0.138427 0.196068
673 3 0.370616 0.0993661 0.197648
674 2 0.366631 0.100737 0.199998
675 2 0.400106 0.100051 0.197328
676 3 0.356004 0.0534521 0.196559
677 2 0.360521 0.0496831 0.194231
678 2 0.371679 0.0260408 0.197584
679 3 0.316419 0.045914 0.197349
680 2 0.313762 0.0123351 0.198439
681 2 0.307386 0.0722974 0.198908
682 3 0.292242 0.045914 0.194722
683 2 0.297821 0.0767518 0.193376
684 2 0.297556 0.0147336 0.19344
685 3 0.252922 0.0472846 0.195598
686 2 0.248406 0.0219291 0.197349
687 2 0.246281 0.0815487 0.196473
688 3 0.227418 0.0352921 0.193163
689 2 0.200053 0.0349495 0.19406
690 2 0.232731 0 0.192394
691 3 0.227949 0.0702416 0.190663
692 2 0.200053 0.0757238 0.18998
693 2 0.23831 0.104163 0.19139
694 3 0.249469 0.0531095 0.1881
695 2 0.278427 0.0527668 0.188634
696 2 0.241233 0.0174747 0.187587
697 3 0.243358 0.0832619 0.185451
698 2 0.2144 0.0853178 0.185046
699 2 0.253719 0.118211 0.185879
700 3 0.261955 0.0633887 0.182824
701 2 0.29118 0.0668151 0.183059
702 2 0.255313 0.0263834 0.182632
703 3 0.25 0.0877163 0.18009
704 2 0.22051 0.0856604 0.179919
705 2 0.257705 0.124379 0.180197
706 3 0.266472 0.0654446 0.17742
707 2 0.295696 0.0698989 0.177484
708 2 0.260361 0.0280966 0.17742
709 3 0.251594 0.087031 0.174686
710 2 0.22237 0.0825767 0.174643
711 2 0.257705 0.124379 0.174664
712 3 0.267535 0.064074 0.172037
713 2 0.297024 0.068871 0.172037
714 2 0.261955 0.0267261 0.17208
715 3 0.25186 0.0846325 0.169282
716 2 0.222635 0.0791502 0.169282
717 2 0.257173 0.12198 0.169217
718 3 0.268066 0.0620182 0.166633
719 2 0.29729 0.0675004 0.166611
720 2 0.263018 0.0243276 0.166697
721 3 0.25186 0.0818914 0.163899
722 2 0.222901 0.0757238 0.163877
723 2 0.256376 0.119582 0.163835
724 3 0.268597 0.060305 0.161229
725 2 0.297821 0.0664725 0.161229
726 2 0.264081 0.0226144 0.161271
727 3 0.252125 0.0801782 0.158495
728 2 0.223167 0.0733253 0.158495
729 2 0.256376 0.117869 0.158452
730 3 0.269129 0.0589344 0.155824
731 2 0.298087 0.0657872 0.155824
732 2 0.264878 0.0212438 0.155867
733 3 0.252391 0.0788076 0.153112
734 2 0.223433 0.0712695 0.153112
735 2 0.256376 0.116498 0.153069
736 3 0.269129 0.0579065 0.15042
737 2 0.298087 0.0651019 0.15042
738 2 0.265409 0.0198732 0.150442
739 3 0.252391 0.0777797 0.147707
740 2 0.223433 0.0702416 0.147707
741 2 0.256111 0.11547 0.147686
742 3 0.269129 0.0572212 0.145016
743 2 0.298087 0.0644167 0.145016
744 2 0.265143 0.0195306 0.145016
745 3 0.252125 0.077437 0.142303
746 2 0.223167 0.0702416 0.142325
747 2 0.255845 0.11547 0.142303
748 3 0.269129 0.0572212 0.139612
749 2 0.298087 0.0644167 0.139612
750 2 0.265143 0.0195306 0.139612
751 3 0.252125 0.0777797 0.13692
752 2 0.223167 0.0702416 0.13692
753 2 0.255845 0.11547 0.13692
754 3 0.268863 0.0575638 0.134208
755 2 0.297821 0.0647593 0.134208
756 2 0.264878 0.0198732 0.134186
757 3 0.25186 0.0781223 0.131516
758 2 0.222901 0.0709268 0.131516
759 2 0.255845 0.116156 0.131516
760 3 0.268597 0.0579065 0.128803
761 2 0.297556 0.0651019 0.128803
762 2 0.264612 0.0202159 0.128782
763 3 0.251594 0.0788076 0.126112
764 2 0.222635 0.0716121 0.126112
765 2 0.255579 0.116498 0.126133
766 3 0.268332 0.0585917 0.123399
767 2 0.29729 0.0654446 0.123399
768 2 0.264081 0.0209011 0.123399
769 3 0.251594 0.0791502 0.120708
770 2 0.22237 0.0722974 0.120708
771 2 0.255579 0.116841 0.120729
772 3 0.268066 0.0589344 0.118016
773 2 0.297024 0.0654446 0.117995
774 2 0.263815 0.0209011 0.117995
775 3 0.251328 0.0794929 0.115304
776 2 0.22237 0.0726401 0.115325
777 2 0.255579 0.117183 0.115325
778 3 0.268066 0.0589344 0.112612
779 2 0.297024 0.0657872 0.112612
780 2 0.263815 0.0212438 0.112612
781 3 0.251328 0.0794929 0.109921
782 2 0.22237 0.0726401 0.109921
783 2 0.255313 0.117183 0.109921
784 3 0.2678 0.0589344 0.107208
785 2 0.297024 0.0657872 0.107208
786 2 0.263815 0.0212438 0.107208
787 3 0.251328 0.0794929 0.104517
788 2 0.222104 0.0726401 0.104517
789 2 0.255313 0.117183 0.104517
790 3 0.268066 0.0589344 0.101804
791 2 0.297024 0.0657872 0.101804
792 2 0.263815 0.0212438 0.101825
793 3 0.251328 0.0791502 0.0991125
794 2 0.22237 0.0722974 0.0991125
795 2 0.255313 0.117183 0.0991125
796 3 0.268066 0.0585917 0.0964211
797 2 0.297024 0.0657872 0.0964211
798 2 0.264081 0.0209011 0.0964211
799 3 0.251594 0.0791502 0.0937083
800 2 0.22237 0.0719548 0.0937083
801 2 0.255313 0.116841 0.0937083
802 3 0.268332 0.0585917 0.0910169
803 2 0.29729 0.0654446 0.0910169
804 2 0.264081 0.0209011 0.0910169
805 3 0.251594 0.0791502 0.0883041
806 2 0.222635 0.0719548 0.0883041
807 2 0.255579 0.116841 0.0883041
808 3 0.268332 0.0585917 0.0856127
809 2 0.29729 0.0654446 0.0856127
810 2 0.264346 0.0205585 0.0856127
811 3 0.251594 0.0791502 0.0829213
812 2 0.222635 0.0719548 0.0829213
813 2 0.255579 0.116841 0.0829213
814 3 0.268332 0.0585917 0.0802085
815 2 0.29729 0.0654446 0.0802085
816 2 0.264081 0.0209011 0.0802085
817 3 0.251594 0.0791502 0.0775171
818 2 0.222635 0.0719548 0.0775171
819 2 0.255579 0.116841 0.0775171
820 3 0.268332 0.0585917 0.0748256
821 2 0.29729 0.0654446 0.0748256
822 2 0.264081 0.0209011 0.0748256
823 3 0.251594 0.0791502 0.0721129
824 2 0.22237 0.0722974 0.0721129
825 2 0.255579 0.116841 0.0721129
826 3 0.268332 0.0585917 0.0694215
827 2 0.29729 0.0654446 0.0694215
828 2 0.264081 0.0209011 0.0694215
829 3 0.251594 0.0791502 0.06673
830 2 0.22237 0.0722974 0.06673
831 2 0.255579 0.116841 0.06673
832 3 0.268066 0.0585917 0.0640173
833 2 0.29729 0.0654446 0.0640173
834 2 0.264081 0.0209011 0.0640173
835 3 0.251328 0.0791502 0.0613258
836 2 0.22237 0.0719548 0.0613258
837 2 0.255313 0.116841 0.0613258
838 3 0.268066 0.0585917 0.0586344
839 2 0.297024 0.0654446 0.0586344
840 2 0.264081 0.0209011 0.0586344
841 3 0.251594 0.0791502 0.0559216
842 2 0.22237 0.0719548 0.0559216
843 2 0.255313 0.116841 0.0559216
844 3 0.268066 0.0585917 0.0532302
845 2 0.29729 0.0654446 0.0532302
846 2 0.264081 0.0205585 0.0532302
847 3 0.251594 0.0791502 0.0505175
848 2 0.22237 0.0719548 0.0505175
849 2 0.255579 0.116841 0.0505388
850 3 0.268332 0.0585917 0.047826
851 2 0.29729 0.0654446 0.047826
852 2 0.264081 0.0209011 0.047826
853 3 0.251594 0.0791502 0.0451346
854 2 0.22237 0.0722974 0.0451346
855 2 0.255579 0.116841 0.0451346
856 3 0.268332 0.0589344 0.0424218
857 2 0.29729 0.0657872 0.0424432
858 2 0.264081 0.0212438 0.0424218
859 3 0.251594 0.0794929 0.0397304
860 2 0.222635 0.0726401 0.0397304
861 2 0.255579 0.117183 0.0397304
862 3 0.268332 0.0589344 0.037039
863 2 0.29729 0.0657872 0.037039
864 2 0.264081 0.0212438 0.0370177
865 3 0.251594 0.0798355 0.0343262
866 2 0.222635 0.0729827 0.0343262
867 2 0.255845 0.117526 0.0343262
868 3 0.268332 0.0589344 0.0316348
869 2 0.29729 0.0657872 0.0316348
870 2 0.263815 0.0212438 0.0316348
871 3 0.251594 0.0794929 0.028922
872 2 0.222635 0.0726401 0.028922
873 2 0.255845 0.117183 0.028922
874 3 0.268066 0.0589344 0.0262306
875 2 0.29729 0.0654446 0.0262306
876 2 0.263815 0.0212438 0.0262306
877 3 0.251594 0.0794929 0.0235392
878 2 0.222635 0.0722974 0.0235179
879 2 0.255579 0.117183 0.0235392
880 3 0.268332 0.0589344 0.0208264