56500
 Atoms. Timestep: 0
1 5.51 4.15 0.9
2 5.62 3.05 0.86
2 5.99 4.59 0
2 4.43 4.41 0.88
3 6.16 4.71 2.16
2 6.04 5.81 2.16
2 7.25 4.47 2.14
3 5.52 4.11 3.42
2 5.65 3.01 3.41
2 4.44 4.34 3.43
3 6.17 4.69 4.68
2 6.04 5.8 4.69
2 7.26 4.47 4.68
3 5.54 4.1 5.95
2 5.68 2.99 5.94
2 4.45 4.31 5.95
3 6.18 4.68 7.21
2 6.04 5.79 7.21
2 7.27 4.46 7.21
3 5.54 4.09 8.47
2 4.45 4.31 8.47
2 5.68 2.99 8.47
3 6.18 4.68 9.74
2 7.27 4.45 9.74
2 6.05 5.79 9.73
3 5.53 4.1 11
2 4.45 4.33 11
2 5.66 2.99 11
3 6.18 4.69 12.27
2 7.26 4.46 12.27
2 6.05 5.79 12.26
3 5.53 4.11 13.53
2 4.44 4.33 13.53
2 5.66 3 13.53
3 6.17 4.7 14.79
2 7.26 4.47 14.79
2 6.03 5.8 14.79
3 5.53 4.11 16.06
2 4.44 4.33 16.05
2 5.67 3.01 16.06
3 6.16 4.71 17.32
2 7.25 4.49 17.32
2 6.02 5.81 17.32
3 5.53 4.11 18.58
2 4.44 4.33 18.58
2 5.67 3.01 18.58
3 6.16 4.71 19.85
2 7.25 4.5 19.85
2 6.01 5.81 19.85
3 5.53 4.11 21.11
2 4.43 4.33 21.11
2 5.67 3.01 21.11
3 6.16 4.71 22.37
2 7.25 4.5 22.37
2 6.01 5.81 22.37
3 5.53 4.11 23.64
2 4.43 4.32 23.64
2 5.67 3.01 23.63
3 6.16 4.7 24.9
2 7.25 4.49 24.9
2 6.01 5.81 24.9
3 5.53 4.11 26.16
2 4.43 4.32 26.16
2 5.67 3.01 26.16
3 6.15 4.7 27.43
2 7.25 4.49 27.43
2 6.01 5.8 27.43
3 5.52 4.1 28.69
2 4.43 4.32 28.69
2 5.67 3 28.69
3 6.15 4.7 29.95
2 7.25 4.49 29.95
2 6.01 5.8 29.95
3 5.52 4.11 31.22
2 4.43 4.32 31.22
2 5.67 3 31.22
3 6.16 4.7 32.48
2 7.25 4.49 32.48
2 6.01 5.81 32.48
3 5.53 4.11 33.75
2 4.43 4.32 33.75
2 5.67 3.01 33.75
3 6.16 4.7 35.01
2 7.25 4.49 35.01
2 6.01 5.81 35.01
3 5.53 4.11 36.27
2 4.43 4.32 36.27
2 5.67 3.01 36.27
3 6.16 4.7 37.54
2 7.25 4.49 37.54
2 6.01 5.81 37.54
3 5.53 4.11 38.8
2 4.43 4.32 38.8
2 5.67 3.01 38.8
3 6.16 4.7 40.06
2 7.25 4.49 40.06
2 6.01 5.81 40.06
3 5.53 4.11 41.33
2 4.44 4.32 41.33
2 5.68 3.01 41.33
3 6.16 4.7 42.59
2 7.25 4.49 42.59
2 6.01 5.81 42.59
3 5.53 4.11 43.85
2 4.43 4.32 43.85
2 5.67 3.01 43.85
3 6.16 4.7 45.12
2 7.25 4.49 45.12
2 6.01 5.81 45.12
3 5.52 4.1 46.38
2 4.43 4.32 46.38
2 5.67 3 46.38
3 6.15 4.7 47.65
2 7.25 4.49 47.65
2 6.01 5.8 47.65
3 5.52 4.1 48.91
2 4.43 4.32 48.91
2 5.67 3 48.91
3 6.15 4.7 50.17
2 7.25 4.49 50.17
2 6.01 5.81 50.17
3 5.52 4.11 51.44
2 4.43 4.32 51.44
2 5.67 3.01 51.44
3 6.15 4.7 52.7
2 7.25 4.49 52.7
2 6.01 5.81 52.7
3 5.52 4.11 53.96
2 4.43 4.32 53.96
2 5.67 3.01 53.96
3 6.16 4.7 55.23
2 7.25 4.49 55.23
2 6.01 5.81 55.23
3 5.52 4.11 56.49
2 4.43 4.32 56.49
2 5.67 3.01 56.49
3 6.16 4.7 57.75
2 7.25 4.49 57.75
2 6.01 5.81 57.75
3 5.53 4.11 59.02
2 4.43 4.32 59.02
2 5.67 3.01 59.01
3 6.16 4.7 60.28
2 7.25 4.49 60.28
2 6.01 5.81 60.28
3 5.53 4.1 61.54
2 4.43 4.31 61.54
2 5.68 3 61.54
3 6.16 4.7 62.8
2 7.25 4.49 62.8
2 6 5.8 62.81
3 5.53 4.1 64.07
2 4.44 4.31 64.07
2 5.68 3 64.07
3 6.16 4.7 65.33
2 7.25 4.49 65.33
2 6.01 5.8 65.33
3 5.53 4.1 66.6
2 4.44 4.3 66.6
2 5.69 3 66.6
3 6.16 4.71 67.86
2 7.25 4.5 67.86
2 6.01 5.81 67.85
3 5.54 4.11 69.12
2 4.44 4.31 69.12
2 5.7 3.01 69.13
3 6.16 4.72 70.38
2 7.26 4.52 70.38
2 6.01 5.82 70.37
3 5.54 4.13 71.65
2 4.45 4.34 71.65
2 5.69 3.03 71.65
3 6.17 4.74 72.91
2 7.26 4.53 72.91
2 6.02 5.84 72.9
3 5.54 4.14 74.17
2 4.45 4.36 74.18
2 5.68 3.04 74.17
3 6.19 4.73 75.43
2 7.28 4.51 75.43
2 6.05 5.84 75.44
3 5.56 4.14 76.7
2 4.47 4.38 76.71
2 5.68 3.03 76.69
3 6.22 4.71 77.96
2 7.3 4.46 77.95
2 6.1 5.81 77.97
3 5.58 4.12 79.22
2 4.5 4.38 79.24
2 5.68 3.01 79.21
3 6.25 4.67 80.49
2 7.33 4.41 80.47
2 6.15 5.78 80.5
3 5.6 4.09 81.75
2 4.52 4.36 81.76
2 5.69 2.99 81.73
3 6.27 4.64 83.01
2 7.35 4.37 83
2 6.19 5.75 83.02
3 5.61 4.07 84.27
2 4.54 4.34 84.28
2 5.7 2.96 84.27
3 6.28 4.62 85.53
2 7.36 4.36 85.52
2 6.19 5.73 85.54
3 5.64 4.05 86.8
2 4.56 4.31 86.82
2 5.74 2.94 86.8
3 6.33 4.61 88.05
2 7.41 4.36 88.02
2 6.22 5.72 88.06
3 5.71 4.04 89.33
2 4.64 4.31 89.37
2 5.8 2.94 89.31
3 6.43 4.59 90.57
2 7.51 4.31 90.54
2 6.39 5.71 90.52
3 5.78 4.15 91.9
2 5.93 4.99 92.62
2 4.69 4.04 91.79
3 6.43 2.9 92.53
2 6.27 2.94 93.63
2 7.53 2.92 92.38
3 5.87 1.56 92.02
2 6.05 1.45 90.93
2 6.46 0.76 92.5
3 4.38 1.34 92.39
2 4.28 0.36 92.9
2 4.04 2.11 93.12
3 3.47 1.34 91.16
2 3.68 2.24 90.53
2 3.68 0.43 90.56
3 1.99 1.38 91.57
2 1.83 0.64 92.39
2 1.75 2.38 91.98
3 1.03 1.03 90.43
2 0.01 1.02 90.85
2 1.23 0 90.07
3 1.05 2.05 89.26
2 0 2.21 88.94
2 1.44 3.04 89.6
3 1.87 1.55 88.06
2 2.95 1.54 88.31
2 1.56 0.51 87.82
3 1.63 2.43 86.82
2 0.54 2.49 86.63
2 2.02 3.45 87.02
3 2.33 1.85 85.59
2 3.44 1.95 85.7
2 2.09 0.77 85.5
3 1.88 2.56 84.31
2 0.77 2.5 84.23
2 2.17 3.63 84.36
3 2.5 1.91 83.06
2 3.61 2.04 83.09
2 2.28 0.82 83.06
3 1.95 2.54 81.78
2 0.84 2.41 81.76
2 2.18 3.63 81.77
3 2.55 1.87 80.54
2 3.65 2.01 80.54
2 2.33 0.78 80.56
3 1.96 2.47 79.25
2 0.85 2.31 79.25
2 2.15 3.56 79.22
3 2.56 1.81 78.01
2 3.66 1.97 78
2 2.37 0.71 78.04
3 1.96 2.39 76.73
2 0.86 2.21 76.72
2 2.13 3.49 76.7
3 2.58 1.76 75.48
2 3.68 1.94 75.48
2 2.41 0.66 75.5
3 1.97 2.34 74.2
2 0.87 2.14 74.2
2 2.12 3.44 74.18
3 2.6 1.72 72.95
2 3.69 1.92 72.95
2 2.45 0.62 72.97
3 1.97 2.3 71.68
2 0.88 2.08 71.68
2 2.12 3.4 71.66
3 2.61 1.69 70.42
2 3.7 1.9 70.42
2 2.46 0.58 70.43
3 1.97 2.27 69.15
2 0.88 2.05 69.15
2 2.11 3.37 69.14
3 2.6 1.67 67.89
2 3.69 1.88 67.89
2 2.46 0.57 67.89
3 1.97 2.26 66.62
2 0.88 2.05 66.63
2 2.11 3.37 66.62
3 2.6 1.67 65.36
2 3.69 1.88 65.36
2 2.45 0.57 65.36
3 1.96 2.27 64.1
2 0.87 2.05 64.1
2 2.1 3.37 64.1
3 2.59 1.68 62.83
2 3.68 1.89 62.83
2 2.44 0.58 62.82
3 1.95 2.28 61.57
2 0.86 2.07 61.57
2 2.1 3.39 61.57
3 2.58 1.69 60.3
2 3.67 1.9 60.3
2 2.43 0.59 60.29
3 1.95 2.3 59.04
2 0.85 2.09 59.04
2 2.09 3.4 59.05
3 2.57 1.71 57.77
2 3.66 1.91 57.77
2 2.42 0.61 57.77
3 1.94 2.31 56.51
2 0.85 2.11 56.51
2 2.09 3.41 56.52
3 2.56 1.72 55.25
2 3.66 1.91 55.24
2 2.41 0.61 55.24
3 1.93 2.32 53.98
2 0.84 2.12 53.99
2 2.09 3.42 53.99
3 2.56 1.72 52.72
2 3.65 1.92 52.72
2 2.4 0.62 52.72
3 1.93 2.32 51.46
2 0.84 2.12 51.46
2 2.08 3.42 51.46
3 2.56 1.72 50.19
2 3.65 1.92 50.19
2 2.4 0.62 50.19
3 1.93 2.32 48.93
2 0.84 2.12 48.93
2 2.08 3.42 48.93
3 2.56 1.72 47.66
2 3.65 1.92 47.66
2 2.4 0.62 47.67
3 1.93 2.31 46.4
2 0.84 2.11 46.4
2 2.08 3.42 46.4
3 2.56 1.71 45.14
2 3.66 1.92 45.14
2 2.41 0.61 45.14
3 1.94 2.31 43.87
2 0.84 2.1 43.87
2 2.09 3.41 43.87
3 2.57 1.71 42.61
2 3.66 1.91 42.61
2 2.42 0.61 42.61
3 1.94 2.31 41.34
2 0.85 2.1 41.34
2 2.09 3.41 41.34
3 2.57 1.71 40.08
2 3.67 1.91 40.08
2 2.42 0.6 40.08
3 1.94 2.31 38.82
2 0.85 2.1 38.82
2 2.09 3.41 38.82
3 2.57 1.71 37.55
2 3.66 1.91 37.55
2 2.42 0.61 37.55
3 1.94 2.31 36.29
2 0.85 2.1 36.29
2 2.09 3.41 36.29
3 2.57 1.71 35.03
2 3.66 1.91 35.03
2 2.41 0.61 35.03
3 1.94 2.31 33.76
2 0.85 2.11 33.76
2 2.09 3.41 33.76
3 2.57 1.71 32.5
2 3.66 1.91 32.5
2 2.41 0.61 32.5
3 1.94 2.31 31.24
2 0.84 2.11 31.24
2 2.09 3.41 31.24
3 2.57 1.71 29.97
2 3.66 1.91 29.97
2 2.41 0.61 29.97
3 1.94 2.31 28.71
2 0.84 2.1 28.71
2 2.09 3.41 28.71
3 2.56 1.71 27.45
2 3.66 1.91 27.45
2 2.41 0.61 27.45
3 1.94 2.31 26.18
2 0.84 2.1 26.18
2 2.09 3.41 26.18
3 2.57 1.71 24.92
2 3.66 1.91 24.92
2 2.41 0.6 24.92
3 1.94 2.31 23.65
2 0.85 2.1 23.65
2 2.09 3.41 23.66
3 2.57 1.71 22.39
2 3.66 1.91 22.39
2 2.41 0.61 22.39
3 1.94 2.31 21.13
2 0.85 2.11 21.13
2 2.09 3.41 21.13
3 2.57 1.72 19.86
2 3.66 1.92 19.87
2 2.41 0.62 19.86
3 1.94 2.32 18.6
2 0.85 2.12 18.6
2 2.1 3.42 18.6
3 2.57 1.72 17.34
2 3.66 1.92 17.34
2 2.41 0.62 17.33
3 1.94 2.33 16.07
2 0.85 2.13 16.07
2 2.1 3.43 16.07
3 2.57 1.72 14.81
2 3.66 1.92 14.81
2 2.41 0.62 14.81
3 1.94 2.32 13.54
2 0.85 2.12 13.54
2 2.1 3.42 13.54
3 2.57 1.72 12.28
2 3.66 1.91 12.28
2 2.4 0.62 12.28
3 1.94 2.32 11.02
2 0.85 2.11 11.01
2 2.09 3.42 11.02
3 2.57 1.72 9.75
2 3.66 1.92 9.75
2 2.42 0.62 9.75
3 1.94 2.31 8.49
2 0.85 2.11 8.49
2 2.09 3.42 8.49
3 2.57 1.71 7.23
2 2.41 0.61 7.23
2 3.66 1.91 7.22
3 1.94 2.31 5.96
2 2.1 3.41 5.96
2 0.85 2.11 5.96
3 2.56 1.7 4.7
2 2.4 0.6 4.7
2 3.66 1.89 4.7
3 1.94 2.31 3.43
2 2.1 3.4 3.43
2 0.85 2.11 3.43
3 2.57 1.7 2.17
2 2.41 0.6 2.16
2 3.66 1.9 2.16
1 1.95 2.3 0.91
2 2.43 1.85 0.01
2 2.11 3.4 0.89
2 0.86 2.09 0.88
1 13.04 4.15 0.9
2 13.15 3.05 0.86
2 13.52 4.59 0
2 11.96 4.41 0.88
3 13.69 4.71 2.16
2 13.57 5.81 2.16
2 14.77 4.47 2.14
3 13.05 4.11 3.42
2 13.18 3.01 3.41
2 11.96 4.34 3.43
3 13.7 4.69 4.68
2 13.56 5.8 4.69
2 14.79 4.47 4.68
3 13.07 4.1 5.95
2 13.21 2.99 5.94
2 11.98 4.31 5.95
3 13.7 4.68 7.21
2 13.57 5.79 7.21
2 14.79 4.46 7.21
3 13.07 4.09 8.47
2 11.98 4.31 8.47
2 13.21 2.99 8.47
3 13.7 4.68 9.74
2 14.79 4.45 9.74
2 13.58 5.79 9.73
3 13.06 4.1 11
2 11.97 4.33 11
2 13.19 2.99 11
3 13.7 4.69 12.27
2 14.79 4.46 12.27
2 13.58 5.79 12.26
3 13.06 4.11 13.53
2 11.97 4.33 13.53
2 13.19 3 13.53
3 13.7 4.7 14.79
2 14.79 4.47 14.79
2 13.56 5.8 14.79
3 13.06 4.11 16.06
2 11.97 4.33 16.05
2 13.2 3.01 16.06
3 13.69 4.71 17.32
2 14.78 4.49 17.32
2 13.55 5.81 17.32
3 13.06 4.11 18.58
2 11.97 4.33 18.58
2 13.2 3.01 18.58
3 13.69 4.71 19.85
2 14.78 4.5 19.85
2 13.54 5.81 19.85
3 13.05 4.11 21.11
2 11.96 4.33 21.11
2 13.2 3.01 21.11
3 13.68 4.71 22.37
2 14.78 4.5 22.37
2 13.54 5.81 22.37
3 13.05 4.11 23.64
2 11.96 4.32 23.64
2 13.2 3.01 23.63
3 13.68 4.7 24.9
2 14.78 4.49 24.9
2 13.54 5.81 24.9
3 13.05 4.11 26.16
2 11.96 4.32 26.16
2 13.2 3.01 26.16
3 13.68 4.7 27.43
2 14.78 4.49 27.43
2 13.54 5.8 27.43
3 13.05 4.1 28.69
2 11.96 4.32 28.69
2 13.2 3 28.69
3 13.68 4.7 29.95
2 14.77 4.49 29.95
2 13.54 5.8 29.95
3 13.05 4.11 31.22
2 11.96 4.32 31.22
2 13.2 3 31.22
3 13.68 4.7 32.48
2 14.78 4.49 32.48
2 13.54 5.81 32.48
3 13.05 4.11 33.75
2 11.96 4.32 33.75
2 13.2 3.01 33.75
3 13.68 4.7 35.01
2 14.78 4.49 35.01
2 13.54 5.81 35.01
3 13.05 4.11 36.27
2 11.96 4.32 36.27
2 13.2 3.01 36.27
3 13.68 4.7 37.54
2 14.78 4.49 37.54
2 13.54 5.81 37.54
3 13.05 4.11 38.8
2 11.96 4.32 38.8
2 13.2 3.01 38.8
3 13.69 4.7 40.06
2 14.78 4.49 40.06
2 13.54 5.81 40.06
3 13.06 4.11 41.33
2 11.96 4.32 41.33
2 13.2 3.01 41.33
3 13.69 4.7 42.59
2 14.78 4.49 42.59
2 13.54 5.81 42.59
3 13.06 4.11 43.85
2 11.96 4.32 43.85
2 13.2 3.01 43.85
3 13.68 4.7 45.12
2 14.78 4.49 45.12
2 13.54 5.81 45.12
3 13.05 4.1 46.38
2 11.96 4.32 46.38
2 13.2 3 46.38
3 13.68 4.7 47.65
2 14.77 4.49 47.65
2 13.53 5.8 47.65
3 13.05 4.1 48.91
2 11.96 4.32 48.91
2 13.2 3 48.91
3 13.68 4.7 50.17
2 14.77 4.49 50.17
2 13.54 5.81 50.17
3 13.05 4.11 51.44
2 11.96 4.32 51.44
2 13.2 3.01 51.44
3 13.68 4.7 52.7
2 14.78 4.49 52.7
2 13.54 5.81 52.7
3 13.05 4.11 53.96
2 11.96 4.32 53.96
2 13.2 3.01 53.96
3 13.68 4.7 55.23
2 14.78 4.49 55.23
2 13.54 5.81 55.23
3 13.05 4.11 56.49
2 11.96 4.32 56.49
2 13.2 3.01 56.49
3 13.68 4.7 57.75
2 14.78 4.49 57.75
2 13.54 5.81 57.75
3 13.05 4.11 59.02
2 11.96 4.32 59.02
2 13.2 3.01 59.01
3 13.68 4.7 60.28
2 14.78 4.49 60.28
2 13.54 5.81 60.28
3 13.06 4.1 61.54
2 11.96 4.31 61.54
2 13.21 3 61.54
3 13.68 4.7 62.8
2 14.78 4.49 62.8
2 13.53 5.8 62.81
3 13.06 4.1 64.07
2 11.97 4.31 64.07
2 13.21 3 64.07
3 13.69 4.7 65.33
2 14.78 4.49 65.33
2 13.53 5.8 65.33
3 13.06 4.1 66.6
2 11.97 4.3 66.6
2 13.22 3 66.6
3 13.69 4.71 67.86
2 14.78 4.5 67.86
2 13.53 5.81 67.85
3 13.06 4.11 69.12
2 11.97 4.31 69.12
2 13.22 3.01 69.13
3 13.69 4.72 70.38
2 14.78 4.52 70.38
2 13.53 5.82 70.37
3 13.07 4.13 71.65
2 11.97 4.34 71.65
2 13.22 3.03 71.65
3 13.7 4.74 72.91
2 14.79 4.53 72.91
2 13.55 5.84 72.9
3 13.07 4.14 74.17
2 11.98 4.36 74.18
2 13.21 3.04 74.17
3 13.72 4.73 75.43
2 14.8 4.51 75.43
2 13.58 5.84 75.44
3 13.09 4.14 76.7
2 12 4.38 76.71
2 13.21 3.03 76.69
3 13.75 4.71 77.96
2 14.83 4.46 77.95
2 13.63 5.81 77.97
3 13.11 4.12 79.22
2 12.03 4.38 79.24
2 13.21 3.01 79.21
3 13.78 4.67 80.49
2 14.86 4.41 80.47
2 13.68 5.78 80.5
3 13.13 4.09 81.75
2 12.05 4.36 81.76
2 13.22 2.99 81.73
3 13.8 4.64 83.01
2 14.88 4.37 83
2 13.71 5.75 83.02
3 13.14 4.07 84.27
2 12.06 4.34 84.28
2 13.23 2.96 84.27
3 13.81 4.62 85.53
2 14.89 4.36 85.52
2 13.72 5.73 85.54
3 13.17 4.05 86.8
2 12.09 4.31 86.82
2 13.27 2.94 86.8
3 13.85 4.61 88.05
2 14.94 4.36 88.02
2 13.75 5.72 88.06
3 13.24 4.04 89.33
2 12.16 4.31 89.37
2 13.33 2.94 89.31
3 13.96 4.59 90.57
2 15.04 4.31 90.54
2 13.92 5.71 90.52
3 13.31 4.15 91.9
2 13.46 4.99 92.62
2 12.21 4.04 91.79
3 13.95 2.9 92.53
2 13.8 2.94 93.63
2 15.06 2.92 92.38
3 13.4 1.56 92.02
2 13.57 1.45 90.93
2 13.99 0.76 92.5
3 11.91 1.34 92.39
2 11.81 0.36 92.9
2 11.57 2.11 93.12
3 11 1.34 91.16
2 11.21 2.24 90.53
2 11.2 0.43 90.56
3 9.52 1.38 91.57
2 9.35 0.64 92.39
2 9.27 2.38 91.98
3 8.56 1.03 90.43
2 7.53 1.02 90.85
2 8.76 0 90.07
3 8.58 2.05 89.26
2 7.53 2.21 88.94
2 8.97 3.04 89.6
3 9.39 1.55 88.06
2 10.48 1.54 88.31
2 9.08 0.51 87.82
3 9.16 2.43 86.82
2 8.07 2.49 86.63
2 9.55 3.45 87.02
3 9.86 1.85 85.59
2 10.96 1.95 85.7
2 9.61 0.77 85.5
3 9.41 2.56 84.31
2 8.3 2.5 84.23
2 9.7 3.63 84.36
3 10.03 1.91 83.06
2 11.13 2.04 83.09
2 9.8 0.82 83.06
3 9.47 2.54 81.78
2 8.37 2.41 81.76
2 9.7 3.63 81.77
3 10.07 1.87 80.54
2 11.18 2.01 80.54
2 9.86 0.78 80.56
3 9.48 2.47 79.25
2 8.38 2.31 79.25
2 9.68 3.56 79.22
3 10.09 1.81 78.01
2 11.19 1.97 78
2 9.9 0.71 78.04
3 9.48 2.39 76.73
2 8.39 2.21 76.72
2 9.65 3.49 76.7
3 10.11 1.76 75.48
2 11.21 1.94 75.48
2 9.94 0.66 75.5
3 9.49 2.34 74.2
2 8.4 2.14 74.2
2 9.65 3.44 74.18
3 10.13 1.72 72.95
2 11.22 1.92 72.95
2 9.97 0.62 72.97
3 9.5 2.3 71.68
2 8.41 2.08 71.68
2 9.65 3.4 71.66
3 10.13 1.69 70.42
2 11.22 1.9 70.42
2 9.99 0.58 70.43
3 9.5 2.27 69.15
2 8.41 2.05 69.15
2 9.64 3.37 69.14
3 10.13 1.67 67.89
2 11.22 1.88 67.89
2 9.98 0.57 67.89
3 9.49 2.26 66.62
2 8.4 2.05 66.63
2 9.63 3.37 66.62
3 10.13 1.67 65.36
2 11.22 1.88 65.36
2 9.98 0.57 65.36
3 9.49 2.27 64.1
2 8.4 2.05 64.1
2 9.63 3.37 64.1
3 10.12 1.68 62.83
2 11.21 1.89 62.83
2 9.97 0.58 62.82
3 9.48 2.28 61.57
2 8.39 2.07 61.57
2 9.63 3.39 61.57
3 10.11 1.69 60.3
2 11.2 1.9 60.3
2 9.96 0.59 60.29
3 9.47 2.3 59.04
2 8.38 2.09 59.04
2 9.62 3.4 59.05
3 10.1 1.71 57.77
2 11.19 1.91 57.77
2 9.94 0.61 57.77
3 9.47 2.31 56.51
2 8.37 2.11 56.51
2 9.62 3.41 56.52
3 10.09 1.72 55.25
2 11.18 1.91 55.24
2 9.93 0.61 55.24
3 9.46 2.32 53.98
2 8.37 2.12 53.99
2 9.62 3.42 53.99
3 10.09 1.72 52.72
2 11.18 1.92 52.72
2 9.93 0.62 52.72
3 9.46 2.32 51.46
2 8.37 2.12 51.46
2 9.61 3.42 51.46
3 10.08 1.72 50.19
2 11.18 1.92 50.19
2 9.93 0.62 50.19
3 9.46 2.32 48.93
2 8.36 2.12 48.93
2 9.61 3.42 48.93
3 10.09 1.72 47.66
2 11.18 1.92 47.66
2 9.93 0.62 47.67
3 9.46 2.31 46.4
2 8.37 2.11 46.4
2 9.61 3.42 46.4
3 10.09 1.71 45.14
2 11.18 1.92 45.14
2 9.94 0.61 45.14
3 9.47 2.31 43.87
2 8.37 2.1 43.87
2 9.61 3.41 43.87
3 10.1 1.71 42.61
2 11.19 1.91 42.61
2 9.94 0.61 42.61
3 9.47 2.31 41.34
2 8.38 2.1 41.34
2 9.62 3.41 41.34
3 10.1 1.71 40.08
2 11.19 1.91 40.08
2 9.95 0.6 40.08
3 9.47 2.31 38.82
2 8.38 2.1 38.82
2 9.62 3.41 38.82
3 10.1 1.71 37.55
2 11.19 1.91 37.55
2 9.94 0.61 37.55
3 9.47 2.31 36.29
2 8.38 2.1 36.29
2 9.62 3.41 36.29
3 10.1 1.71 35.03
2 11.19 1.91 35.03
2 9.94 0.61 35.03
3 9.47 2.31 33.76
2 8.37 2.11 33.76
2 9.62 3.41 33.76
3 10.1 1.71 32.5
2 11.19 1.91 32.5
2 9.94 0.61 32.5
3 9.47 2.31 31.24
2 8.37 2.11 31.24
2 9.62 3.41 31.24
3 10.09 1.71 29.97
2 11.19 1.91 29.97
2 9.94 0.61 29.97
3 9.46 2.31 28.71
2 8.37 2.1 28.71
2 9.61 3.41 28.71
3 10.09 1.71 27.45
2 11.18 1.91 27.45
2 9.94 0.61 27.45
3 9.47 2.31 26.18
2 8.37 2.1 26.18
2 9.61 3.41 26.18
3 10.09 1.71 24.92
2 11.19 1.91 24.92
2 9.94 0.6 24.92
3 9.47 2.31 23.65
2 8.37 2.1 23.65
2 9.62 3.41 23.66
3 10.1 1.71 22.39
2 11.19 1.91 22.39
2 9.94 0.61 22.39
3 9.47 2.31 21.13
2 8.37 2.11 21.13
2 9.62 3.41 21.13
3 10.1 1.72 19.86
2 11.19 1.92 19.87
2 9.94 0.62 19.86
3 9.47 2.32 18.6
2 8.38 2.12 18.6
2 9.62 3.42 18.6
3 10.1 1.72 17.34
2 11.19 1.92 17.34
2 9.94 0.62 17.33
3 9.47 2.33 16.07
2 8.38 2.13 16.07
2 9.63 3.43 16.07
3 10.1 1.72 14.81
2 11.19 1.92 14.81
2 9.93 0.62 14.81
3 9.47 2.32 13.54
2 8.38 2.12 13.54
2 9.63 3.42 13.54
3 10.09 1.72 12.28
2 11.19 1.91 12.28
2 9.93 0.62 12.28
3 9.47 2.32 11.02
2 8.38 2.11 11.01
2 9.62 3.42 11.02
3 10.1 1.72 9.75
2 11.19 1.92 9.75
2 9.95 0.62 9.75
3 9.47 2.31 8.49
2 8.38 2.11 8.49
2 9.62 3.42 8.49
3 10.1 1.71 7.23
2 9.94 0.61 7.23
2 11.19 1.91 7.22
3 9.47 2.31 5.96
2 9.63 3.41 5.96
2 8.38 2.11 5.96
3 10.09 1.7 4.7
2 9.92 0.6 4.7
2 11.19 1.89 4.7
3 9.47 2.31 3.43
2 9.63 3.4 3.43
2 8.37 2.11 3.43
3 10.1 1.7 2.17
2 9.94 0.6 2.16
2 11.19 1.9 2.16
1 9.48 2.3 0.91
2 9.96 1.85 0.01
2 9.64 3.4 0.89
2 8.39 2.09 0.88
1 20.56 4.15 0.9
2 20.68 3.05 0.86
2 21.05 4.59 0
2 19.48 4.41 0.88
3 21.22 4.71 2.16
2 21.1 5.81 2.16
2 22.3 4.47 2.14
3 20.58 4.11 3.42
2 20.71 3.01 3.41
2 19.49 4.34 3.43
3 21.22 4.69 4.68
2 21.09 5.8 4.69
2 22.31 4.47 4.68
3 20.59 4.1 5.95
2 20.74 2.99 5.94
2 19.5 4.31 5.95
3 21.23 4.68 7.21
2 21.09 5.79 7.21
2 22.32 4.46 7.21
3 20.6 4.09 8.47
2 19.51 4.31 8.47
2 20.74 2.99 8.47
3 21.23 4.68 9.74
2 22.32 4.45 9.74
2 21.1 5.79 9.73
3 20.59 4.1 11
2 19.5 4.33 11
2 20.72 2.99 11
3 21.23 4.69 12.27
2 22.32 4.46 12.27
2 21.1 5.79 12.26
3 20.59 4.11 13.53
2 19.5 4.33 13.53
2 20.72 3 13.53
3 21.23 4.7 14.79
2 22.32 4.47 14.79
2 21.09 5.8 14.79
3 20.59 4.11 16.06
2 19.5 4.33 16.05
2 20.73 3.01 16.06
3 21.22 4.71 17.32
2 22.31 4.49 17.32
2 21.07 5.81 17.32
3 20.59 4.11 18.58
2 19.49 4.33 18.58
2 20.73 3.01 18.58
3 21.21 4.71 19.85
2 22.31 4.5 19.85
2 21.06 5.81 19.85
3 20.58 4.11 21.11
2 19.49 4.33 21.11
2 20.73 3.01 21.11
3 21.21 4.71 22.37
2 22.3 4.5 22.37
2 21.06 5.81 22.37
3 20.58 4.11 23.64
2 19.49 4.32 23.64
2 20.73 3.01 23.63
3 21.21 4.7 24.9
2 22.3 4.49 24.9
2 21.06 5.81 24.9
3 20.58 4.11 26.16
2 19.49 4.32 26.16
2 20.73 3.01 26.16
3 21.21 4.7 27.43
2 22.3 4.49 27.43
2 21.06 5.8 27.43
3 20.58 4.1 28.69
2 19.49 4.32 28.69
2 20.73 3 28.69
3 21.21 4.7 29.95
2 22.3 4.49 29.95
2 21.06 5.8 29.95
3 20.58 4.11 31.22
2 19.49 4.32 31.22
2 20.73 3 31.22
3 21.21 4.7 32.48
2 22.3 4.49 32.48
2 21.06 5.81 32.48
3 20.58 4.11 33.75
2 19.49 4.32 33.75
2 20.73 3.01 33.75
3 21.21 4.7 35.01
2 22.31 4.49 35.01
2 21.06 5.81 35.01
3 20.58 4.11 36.27
2 19.49 4.32 36.27
2 20.73 3.01 36.27
3 21.21 4.7 37.54
2 22.3 4.49 37.54
2 21.06 5.81 37.54
3 20.58 4.11 38.8
2 19.49 4.32 38.8
2 20.73 3.01 38.8
3 21.21 4.7 40.06
2 22.31 4.49 40.06
2 21.07 5.81 40.06
3 20.58 4.11 41.33
2 19.49 4.32 41.33
2 20.73 3.01 41.33
3 21.21 4.7 42.59
2 22.31 4.49 42.59
2 21.07 5.81 42.59
3 20.58 4.11 43.85
2 19.49 4.32 43.85
2 20.73 3.01 43.85
3 21.21 4.7 45.12
2 22.3 4.49 45.12
2 21.06 5.81 45.12
3 20.58 4.1 46.38
2 19.49 4.32 46.38
2 20.73 3 46.38
3 21.21 4.7 47.65
2 22.3 4.49 47.65
2 21.06 5.8 47.65
3 20.58 4.1 48.91
2 19.49 4.32 48.91
2 20.73 3 48.91
3 21.21 4.7 50.17
2 22.3 4.49 50.17
2 21.06 5.81 50.17
3 20.58 4.11 51.44
2 19.49 4.32 51.44
2 20.73 3.01 51.44
3 21.21 4.7 52.7
2 22.3 4.49 52.7
2 21.06 5.81 52.7
3 20.58 4.11 53.96
2 19.49 4.32 53.96
2 20.73 3.01 53.96
3 21.21 4.7 55.23
2 22.3 4.49 55.23
2 21.07 5.81 55.23
3 20.58 4.11 56.49
2 19.49 4.32 56.49
2 20.73 3.01 56.49
3 21.21 4.7 57.75
2 22.3 4.49 57.75
2 21.06 5.81 57.75
3 20.58 4.11 59.02
2 19.49 4.32 59.02
2 20.73 3.01 59.01
3 21.21 4.7 60.28
2 22.3 4.49 60.28
2 21.06 5.81 60.28
3 20.58 4.1 61.54
2 19.49 4.31 61.54
2 20.73 3 61.54
3 21.21 4.7 62.8
2 22.31 4.49 62.8
2 21.06 5.8 62.81
3 20.59 4.1 64.07
2 19.49 4.31 64.07
2 20.74 3 64.07
3 21.22 4.7 65.33
2 22.31 4.49 65.33
2 21.06 5.8 65.33
3 20.59 4.1 66.6
2 19.5 4.3 66.6
2 20.75 3 66.6
3 21.22 4.71 67.86
2 22.31 4.5 67.86
2 21.06 5.81 67.85
3 20.59 4.11 69.12
2 19.5 4.31 69.12
2 20.75 3.01 69.13
3 21.22 4.72 70.38
2 22.31 4.52 70.38
2 21.06 5.82 70.37
3 20.59 4.13 71.65
2 19.5 4.34 71.65
2 20.75 3.03 71.65
3 21.22 4.74 72.91
2 22.32 4.53 72.91
2 21.07 5.84 72.9
3 20.6 4.14 74.17
2 19.51 4.36 74.18
2 20.74 3.04 74.17
3 21.24 4.73 75.43
2 22.33 4.51 75.43
2 21.11 5.84 75.44
3 20.61 4.14 76.7
2 19.53 4.38 76.71
2 20.73 3.03 76.69
3 21.27 4.71 77.96
2 22.36 4.46 77.95
2 21.16 5.81 77.97
3 20.64 4.12 79.22
2 19.56 4.38 79.24
2 20.74 3.01 79.21
3 21.31 4.67 80.49
2 22.39 4.41 80.47
2 21.21 5.78 80.5
3 20.66 4.09 81.75
2 19.58 4.36 81.76
2 20.75 2.99 81.73
3 21.33 4.64 83.01
2 22.4 4.37 83
2 21.24 5.75 83.02
3 20.67 4.07 84.27
2 19.59 4.34 84.28
2 20.76 2.96 84.27
3 21.34 4.62 85.53
2 22.42 4.36 85.52
2 21.25 5.73 85.54
3 20.7 4.05 86.8
2 19.62 4.31 86.82
2 20.8 2.94 86.8
3 21.38 4.61 88.05
2 22.47 4.36 88.02
2 21.28 5.72 88.06
3 20.77 4.04 89.33
2 19.69 4.31 89.37
2 20.86 2.94 89.31
3 21.49 4.59 90.57
2 22.57 4.31 90.54
2 21.45 5.71 90.52
3 20.84 4.15 91.9
2 20.99 4.99 92.62
2 19.74 4.04 91.79
3 21.48 2.9 92.53
2 21.32 2.94 93.63
2 22.58 2.92 92.38
3 20.92 1.56 92.02
2 21.1 1.45 90.93
2 21.52 0.76 92.5
3 19.44 1.34 92.39
2 19.34 0.36 92.9
2 19.1 2.11 93.12
3 18.53 1.34 91.16
2 18.74 2.24 90.53
2 18.73 0.43 90.56
3 17.05 1.38 91.57
2 16.88 0.64 92.39
2 16.8 2.38 91.98
3 16.09 1.03 90.43
2 15.06 1.02 90.85
2 16.29 0 90.07
3 16.11 2.05 89.26
2 15.06 2.21 88.94
2 16.5 3.04 89.6
3 16.92 1.55 88.06
2 18 1.54 88.31
2 16.61 0.51 87.82
3 16.69 2.43 86.82
2 15.6 2.49 86.63
2 17.07 3.45 87.02
3 17.39 1.85 85.59
2 18.49 1.95 85.7
2 17.14 0.77 85.5
3 16.94 2.56 84.31
2 15.83 2.5 84.23
2 17.22 3.63 84.36
3 17.56 1.91 83.06
2 18.66 2.04 83.09
2 17.33 0.82 83.06
3 17 2.54 81.78
2 15.9 2.41 81.76
2 17.23 3.63 81.77
3 17.6 1.87 80.54
2 18.7 2.01 80.54
2 17.39 0.78 80.56
3 17.01 2.47 79.25
2 15.91 2.31 79.25
2 17.21 3.56 79.22
3 17.62 1.81 78.01
2 18.72 1.97 78
2 17.43 0.71 78.04
3 17.01 2.39 76.73
2 15.92 2.21 76.72
2 17.18 3.49 76.7
3 17.64 1.76 75.48
2 18.73 1.94 75.48
2 17.47 0.66 75.5
3 17.02 2.34 74.2
2 15.93 2.14 74.2
2 17.18 3.44 74.18
3 17.65 1.72 72.95
2 18.75 1.92 72.95
2 17.5 0.62 72.97
3 17.03 2.3 71.68
2 15.94 2.08 71.68
2 17.17 3.4 71.66
3 17.66 1.69 70.42
2 18.75 1.9 70.42
2 17.51 0.58 70.43
3 17.03 2.27 69.15
2 15.94 2.05 69.15
2 17.17 3.37 69.14
3 17.66 1.67 67.89
2 18.75 1.88 67.89
2 17.51 0.57 67.89
3 17.02 2.26 66.62
2 15.93 2.05 66.63
2 17.16 3.37 66.62
3 17.65 1.67 65.36
2 18.74 1.88 65.36
2 17.51 0.57 65.36
3 17.02 2.27 64.1
2 15.93 2.05 64.1
2 17.16 3.37 64.1
3 17.64 1.68 62.83
2 18.74 1.89 62.83
2 17.5 0.58 62.82
3 17.01 2.28 61.57
2 15.92 2.07 61.57
2 17.15 3.39 61.57
3 17.64 1.69 60.3
2 18.73 1.9 60.3
2 17.48 0.59 60.29
3 17 2.3 59.04
2 15.91 2.09 59.04
2 17.15 3.4 59.05
3 17.63 1.71 57.77
2 18.72 1.91 57.77
2 17.47 0.61 57.77
3 17 2.31 56.51
2 15.9 2.11 56.51
2 17.15 3.41 56.52
3 17.62 1.72 55.25
2 18.71 1.91 55.24
2 17.46 0.61 55.24
3 16.99 2.32 53.98
2 15.9 2.12 53.99
2 17.14 3.42 53.99
3 17.61 1.72 52.72
2 18.71 1.92 52.72
2 17.46 0.62 52.72
3 16.99 2.32 51.46
2 15.89 2.12 51.46
2 17.14 3.42 51.46
3 17.61 1.72 50.19
2 18.71 1.92 50.19
2 17.46 0.62 50.19
3 16.99 2.32 48.93
2 15.89 2.12 48.93
2 17.14 3.42 48.93
3 17.61 1.72 47.66
2 18.71 1.92 47.66
2 17.46 0.62 47.67
3 16.99 2.31 46.4
2 15.89 2.11 46.4
2 17.14 3.42 46.4
3 17.62 1.71 45.14
2 18.71 1.92 45.14
2 17.47 0.61 45.14
3 16.99 2.31 43.87
2 15.9 2.1 43.87
2 17.14 3.41 43.87
3 17.63 1.71 42.61
2 18.72 1.91 42.61
2 17.47 0.61 42.61
3 17 2.31 41.34
2 15.91 2.1 41.34
2 17.15 3.41 41.34
3 17.63 1.71 40.08
2 18.72 1.91 40.08
2 17.47 0.6 40.08
3 17 2.31 38.82
2 15.91 2.1 38.82
2 17.15 3.41 38.82
3 17.63 1.71 37.55
2 18.72 1.91 37.55
2 17.47 0.61 37.55
3 17 2.31 36.29
2 15.9 2.1 36.29
2 17.15 3.41 36.29
3 17.63 1.71 35.03
2 18.72 1.91 35.03
2 17.47 0.61 35.03
3 17 2.31 33.76
2 15.9 2.11 33.76
2 17.15 3.41 33.76
3 17.62 1.71 32.5
2 18.72 1.91 32.5
2 17.47 0.61 32.5
3 16.99 2.31 31.24
2 15.9 2.11 31.24
2 17.14 3.41 31.24
3 17.62 1.71 29.97
2 18.71 1.91 29.97
2 17.47 0.61 29.97
3 16.99 2.31 28.71
2 15.9 2.1 28.71
2 17.14 3.41 28.71
3 17.62 1.71 27.45
2 18.71 1.91 27.45
2 17.47 0.61 27.45
3 16.99 2.31 26.18
2 15.9 2.1 26.18
2 17.14 3.41 26.18
3 17.62 1.71 24.92
2 18.72 1.91 24.92
2 17.47 0.6 24.92
3 16.99 2.31 23.65
2 15.9 2.1 23.65
2 17.14 3.41 23.66
3 17.62 1.71 22.39
2 18.72 1.91 22.39
2 17.47 0.61 22.39
3 17 2.31 21.13
2 15.9 2.11 21.13
2 17.15 3.41 21.13
3 17.63 1.72 19.86
2 18.72 1.92 19.87
2 17.47 0.62 19.86
3 17 2.32 18.6
2 15.9 2.12 18.6
2 17.15 3.42 18.6
3 17.63 1.72 17.34
2 18.72 1.92 17.34
2 17.47 0.62 17.33
3 17 2.33 16.07
2 15.91 2.13 16.07
2 17.16 3.43 16.07
3 17.62 1.72 14.81
2 18.72 1.92 14.81
2 17.46 0.62 14.81
3 17 2.32 13.54
2 15.9 2.12 13.54
2 17.16 3.42 13.54
3 17.62 1.72 12.28
2 18.72 1.91 12.28
2 17.46 0.62 12.28
3 17 2.32 11.02
2 15.9 2.11 11.01
2 17.15 3.42 11.02
3 17.63 1.72 9.75
2 18.72 1.92 9.75
2 17.48 0.62 9.75
3 17 2.31 8.49
2 15.9 2.11 8.49
2 17.15 3.42 8.49
3 17.63 1.71 7.23
2 17.47 0.61 7.23
2 18.72 1.91 7.22
3 17 2.31 5.96
2 17.16 3.41 5.96
2 15.9 2.11 5.96
3 17.62 1.7 4.7
2 17.45 0.6 4.7
2 18.71 1.89 4.7
3 17 2.31 3.43
2 17.16 3.4 3.43
2 15.9 2.11 3.43
3 17.62 1.7 2.17
2 17.46 0.6 2.16
2 18.72 1.9 2.16
1 17.01 2.3 0.91
2 17.48 1.85 0.01
2 17.16 3.4 0.89
2 15.92 2.09 0.88
1 28.09 4.15 0.9
2 28.21 3.05 0.86
2 28.58 4.59 0
2 27.01 4.41 0.88
3 28.74 4.71 2.16
2 28.62 5.81 2.16
2 29.83 4.47 2.14
3 28.11 4.11 3.42
2 28.24 3.01 3.41
2 27.02 4.34 3.43
3 28.75 4.69 4.68
2 28.62 5.8 4.69
2 29.84 4.47 4.68
3 28.12 4.1 5.95
2 28.26 2.99 5.94
2 27.03 4.31 5.95
3 28.76 4.68 7.21
2 28.62 5.79 7.21
2 29.85 4.46 7.21
3 28.12 4.09 8.47
2 27.04 4.31 8.47
2 28.26 2.99 8.47
3 28.76 4.68 9.74
2 29.85 4.45 9.74
2 28.63 5.79 9.73
3 28.12 4.1 11
2 27.03 4.33 11
2 28.25 2.99 11
3 28.76 4.69 12.27
2 29.85 4.46 12.27
2 28.63 5.79 12.26
3 28.12 4.11 13.53
2 27.03 4.33 13.53
2 28.25 3 13.53
3 28.75 4.7 14.79
2 29.84 4.47 14.79
2 28.62 5.8 14.79
3 28.12 4.11 16.06
2 27.03 4.33 16.05
2 28.26 3.01 16.06
3 28.75 4.71 17.32
2 29.84 4.49 17.32
2 28.6 5.81 17.32
3 28.11 4.11 18.58
2 27.02 4.33 18.58
2 28.26 3.01 18.58
3 28.74 4.71 19.85
2 29.83 4.5 19.85
2 28.59 5.81 19.85
3 28.11 4.11 21.11
2 27.02 4.33 21.11
2 28.26 3.01 21.11
3 28.74 4.71 22.37
2 29.83 4.5 22.37
2 28.59 5.81 22.37
3 28.11 4.11 23.64
2 27.02 4.32 23.64
2 28.26 3.01 23.63
3 28.74 4.7 24.9
2 29.83 4.49 24.9
2 28.59 5.81 24.9
3 28.11 4.11 26.16
2 27.02 4.32 26.16
2 28.26 3.01 26.16
3 28.74 4.7 27.43
2 29.83 4.49 27.43
2 28.59 5.8 27.43
3 28.11 4.1 28.69
2 27.02 4.32 28.69
2 28.26 3 28.69
3 28.74 4.7 29.95
2 29.83 4.49 29.95
2 28.59 5.8 29.95
3 28.11 4.11 31.22
2 27.02 4.32 31.22
2 28.26 3 31.22
3 28.74 4.7 32.48
2 29.83 4.49 32.48
2 28.59 5.81 32.48
3 28.11 4.11 33.75
2 27.02 4.32 33.75
2 28.26 3.01 33.75
3 28.74 4.7 35.01
2 29.83 4.49 35.01
2 28.59 5.81 35.01
3 28.11 4.11 36.27
2 27.02 4.32 36.27
2 28.26 3.01 36.27
3 28.74 4.7 37.54
2 29.83 4.49 37.54
2 28.59 5.81 37.54
3 28.11 4.11 38.8
2 27.02 4.32 38.8
2 28.26 3.01 38.8
3 28.74 4.7 40.06
2 29.83 4.49 40.06
2 28.59 5.81 40.06
3 28.11 4.11 41.33
2 27.02 4.32 41.33
2 28.26 3.01 41.33
3 28.74 4.7 42.59
2 29.84 4.49 42.59
2 28.59 5.81 42.59
3 28.11 4.11 43.85
2 27.02 4.32 43.85
2 28.26 3.01 43.85
3 28.74 4.7 45.12
2 29.83 4.49 45.12
2 28.59 5.81 45.12
3 28.11 4.1 46.38
2 27.02 4.32 46.38
2 28.26 3 46.38
3 28.74 4.7 47.65
2 29.83 4.49 47.65
2 28.59 5.8 47.65
3 28.11 4.1 48.91
2 27.02 4.32 48.91
2 28.26 3 48.91
3 28.74 4.7 50.17
2 29.83 4.49 50.17
2 28.59 5.81 50.17
3 28.11 4.11 51.44
2 27.02 4.32 51.44
2 28.26 3.01 51.44
3 28.74 4.7 52.7
2 29.83 4.49 52.7
2 28.59 5.81 52.7
3 28.11 4.11 53.96
2 27.02 4.32 53.96
2 28.25 3.01 53.96
3 28.74 4.7 55.23
2 29.83 4.49 55.23
2 28.59 5.81 55.23
3 28.11 4.11 56.49
2 27.02 4.32 56.49
2 28.25 3.01 56.49
3 28.74 4.7 57.75
2 29.83 4.49 57.75
2 28.59 5.81 57.75
3 28.11 4.11 59.02
2 27.02 4.32 59.02
2 28.26 3.01 59.01
3 28.74 4.7 60.28
2 29.83 4.49 60.28
2 28.59 5.81 60.28
3 28.11 4.1 61.54
2 27.02 4.31 61.54
2 28.26 3 61.54
3 28.74 4.7 62.8
2 29.83 4.49 62.8
2 28.59 5.8 62.81
3 28.11 4.1 64.07
2 27.02 4.31 64.07
2 28.27 3 64.07
3 28.74 4.7 65.33
2 29.84 4.49 65.33
2 28.59 5.8 65.33
3 28.12 4.1 66.6
2 27.02 4.3 66.6
2 28.28 3 66.6
3 28.75 4.71 67.86
2 29.84 4.5 67.86
2 28.59 5.81 67.85
3 28.12 4.11 69.12
2 27.03 4.31 69.12
2 28.28 3.01 69.13
3 28.75 4.72 70.38
2 29.84 4.52 70.38
2 28.59 5.82 70.37
3 28.12 4.13 71.65
2 27.03 4.34 71.65
2 28.27 3.03 71.65
3 28.75 4.74 72.91
2 29.85 4.53 72.91
2 28.6 5.84 72.9
3 28.13 4.14 74.17
2 27.04 4.36 74.18
2 28.27 3.04 74.17
3 28.77 4.73 75.43
2 29.86 4.51 75.43
2 28.64 5.84 75.44
3 28.14 4.14 76.7
2 27.05 4.38 76.71
2 28.26 3.03 76.69
3 28.8 4.71 77.96
2 29.89 4.46 77.95
2 28.69 5.81 77.97
3 28.16 4.12 79.22
2 27.08 4.38 79.24
2 28.27 3.01 79.21
3 28.83 4.67 80.49
2 29.91 4.41 80.47
2 28.74 5.78 80.5
3 28.18 4.09 81.75
2 27.11 4.36 81.76
2 28.27 2.99 81.73
3 28.85 4.64 83.01
2 29.93 4.37 83
2 28.77 5.75 83.02
3 28.2 4.07 84.27
2 27.12 4.34 84.28
2 28.28 2.96 84.27
3 28.87 4.62 85.53
2 29.95 4.36 85.52
2 28.77 5.73 85.54
3 28.23 4.05 86.8
2 27.14 4.31 86.82
2 28.32 2.94 86.8
3 28.91 4.61 88.05
2 30 4.36 88.02
2 28.8 5.72 88.06
3 28.3 4.04 89.33
2 27.22 4.31 89.37
2 28.38 2.94 89.31
3 29.02 4.59 90.57
2 30.09 4.31 90.54
2 28.98 5.71 90.52
3 28.37 4.15 91.9
2 28.51 4.99 92.62
2 27.27 4.04 91.79
3 29.01 2.9 92.53
2 28.85 2.94 93.63
2 30.11 2.92 92.38
3 28.45 1.56 92.02
2 28.63 1.45 90.93
2 29.05 0.76 92.5
3 26.97 1.34 92.39
2 26.87 0.36 92.9
2 26.62 2.11 93.12
3 26.05 1.34 91.16
2 26.27 2.24 90.53
2 26.26 0.43 90.56
3 24.58 1.38 91.57
2 24.41 0.64 92.39
2 24.33 2.38 91.98
3 23.62 1.03 90.43
2 22.59 1.02 90.85
2 23.82 0 90.07
3 23.64 2.05 89.26
2 22.58 2.21 88.94
2 24.02 3.04 89.6
3 24.45 1.55 88.06
2 25.53 1.54 88.31
2 24.14 0.51 87.82
3 24.22 2.43 86.82
2 23.13 2.49 86.63
2 24.6 3.45 87.02
3 24.92 1.85 85.59
2 26.02 1.95 85.7
2 24.67 0.77 85.5
3 24.46 2.56 84.31
2 23.36 2.5 84.23
2 24.75 3.63 84.36
3 25.09 1.91 83.06
2 26.19 2.04 83.09
2 24.86 0.82 83.06
3 24.53 2.54 81.78
2 23.42 2.41 81.76
2 24.76 3.63 81.77
3 25.13 1.87 80.54
2 26.23 2.01 80.54
2 24.92 0.78 80.56
3 24.54 2.47 79.25
2 23.44 2.31 79.25
2 24.74 3.56 79.22
3 25.15 1.81 78.01
2 26.25 1.97 78
2 24.96 0.71 78.04
3 24.54 2.39 76.73
2 23.44 2.21 76.72
2 24.71 3.49 76.7
3 25.17 1.76 75.48
2 26.26 1.94 75.48
2 25 0.66 75.5
3 24.55 2.34 74.2
2 23.46 2.14 74.2
2 24.71 3.44 74.18
3 25.18 1.72 72.95
2 26.28 1.92 72.95
2 25.03 0.62 72.97
3 24.56 2.3 71.68
2 23.46 2.08 71.68
2 24.7 3.4 71.66
3 25.19 1.69 70.42
2 26.28 1.9 70.42
2 25.04 0.58 70.43
3 24.55 2.27 69.15
2 23.46 2.05 69.15
2 24.69 3.37 69.14
3 25.19 1.67 67.89
2 26.28 1.88 67.89
2 25.04 0.57 67.89
3 24.55 2.26 66.62
2 23.46 2.05 66.63
2 24.69 3.37 66.62
3 25.18 1.67 65.36
2 26.27 1.88 65.36
2 25.04 0.57 65.36
3 24.54 2.27 64.1
2 23.45 2.05 64.1
2 24.69 3.37 64.1
3 25.17 1.68 62.83
2 26.26 1.89 62.83
2 25.03 0.58 62.82