LAMMPS (2 Jun 2022)
OMP_NUM_THREADS environment is not set. Defaulting to 1 thread. (src/comm.cpp:98)
  using 1 OpenMP thread(s) per MPI task
# LAMMPS Input Script created with replicate_polymer_topology
# FF: ../../forcefields/oplsaa.xml

#======1.Initialization======
units                real
boundary             p p p
dimension            3
atom_style           full

#======2.Force Field terms======
pair_style     hybrid lj/cut/coul/long 10.0 10.0
bond_style     hybrid harmonic
angle_style    hybrid harmonic
dihedral_style hybrid multi/harmonic
#improper_style hybrid harmonic
special_bonds lj 0.0 0.0 0.5 coul 0.0 0.0 0.5

#======3.Data======
read_data 103191_noctane_order_cryst_replicate_clean.lmp
Reading data file ...
  triclinic box = (1.17 1.12 0.5) to (25.908 28.2906 65.8295) with tilt (7.2295 7.2025 3.9508)
  1 by 1 by 1 MPI processor grid
  reading atoms ...
  5616 atoms
  scanning bonds ...
  4 = max bonds/atom
  scanning angles ...
  6 = max angles/atom
  scanning dihedrals ...
  9 = max dihedrals/atom
  reading bonds ...
  5400 bonds
  reading angles ...
  10368 angles
  reading dihedrals ...
  13608 dihedrals
Finding 1-2 1-3 1-4 neighbors ...
  special bond factors lj:    0        0        0.5     
  special bond factors coul:  0        0        0.5     
     4 = max # of 1-2 neighbors
     6 = max # of 1-3 neighbors
    12 = max # of 1-4 neighbors
    16 = max # of special neighbors
  special bonds CPU = 0.002 seconds
  read_data CPU = 0.038 seconds

#======4.Modify Pairs======
pair_modify mix geometric tail yes
kspace_style pppm 1e-5
 #kspace_modify   diff  ad

#======5.Settings======
neigh_modify every 10 delay 20 check yes
thermo          450
thermo_style custom step cpu ebond eangle edihed eimp epair evdwl ecoul elong etail pe temp press lx ly lz density
dump       1 all dcd      100  dump.dcd
dump       2 all xyz    10000  dump_last.xyz
dump       3 all atom   10000  dump_last.atom
dump       4 all xtc      100  dump.xtc
restart    10000 restart.data

#======6.Minimization simulation======
run 0
WARNING: No fixes with time integration, atoms won't move (src/verlet.cpp:60)
PPPM initialization ...
  using 12-bit tables for long-range coulomb (src/kspace.cpp:342)
  G vector (1/distance) = 0.24106346
  grid = 12 16 27
  stencil order = 5
  estimated absolute RMS force accuracy = 0.0026401583
  estimated relative force accuracy = 7.9507582e-06
  using double precision FFTW3
  3d grid and FFT values/proc = 13984 5184
Generated 3 of 3 mixed pair_coeff terms from geometric mixing rule
Neighbor list info ...
  update every 10 steps, delay 20 steps, check yes
  max neighbors/atom: 2000, page size: 100000
  master list distance cutoff = 12
  ghost atom cutoff = 12
  binsize = 6, bins = 7 6 11
  1 neighbor lists, perpetual/occasional/extra = 1 0 0
  (1) pair lj/cut/coul/long, perpetual
      attributes: half, newton on
      pair build: half/bin/newton/tri
      stencil: half/bin/3d/tri
      bin: standard
Per MPI rank memory allocation (min/avg/max) = 40.37 | 40.37 | 40.37 Mbytes
   Step          CPU           E_bond        E_angle        E_dihed        E_impro         E_pair         E_vdwl         E_coul         E_long         E_tail         PotEng          Temp          Press            Lx             Ly             Lz          Density    
         0   0              20427.569      242.11569      20.373855      0             -2885.7294     -3661.2223      2879.7931     -2104.3002     -166.59823      17804.329      0              168176.76      24.738         27.1706        65.3295        0.93305474   
Loop time of 7.11e-07 on 1 procs for 0 steps with 5616 atoms

140.6% CPU use with 1 MPI tasks x 1 OpenMP threads

MPI task timing breakdown:
Section |  min time  |  avg time  |  max time  |%varavg| %total
---------------------------------------------------------------
Pair    | 0          | 0          | 0          |   0.0 |  0.00
Bond    | 0          | 0          | 0          |   0.0 |  0.00
Kspace  | 0          | 0          | 0          |   0.0 |  0.00
Neigh   | 0          | 0          | 0          |   0.0 |  0.00
Comm    | 0          | 0          | 0          |   0.0 |  0.00
Output  | 0          | 0          | 0          |   0.0 |  0.00
Modify  | 0          | 0          | 0          |   0.0 |  0.00
Other   |            | 7.11e-07   |            |       |100.00

Nlocal:           5616 ave        5616 max        5616 min
Histogram: 1 0 0 0 0 0 0 0 0 0
Nghost:          23723 ave       23723 max       23723 min
Histogram: 1 0 0 0 0 0 0 0 0 0
Neighs:    2.59383e+06 ave 2.59383e+06 max 2.59383e+06 min
Histogram: 1 0 0 0 0 0 0 0 0 0

Total # of neighbors = 2593833
Ave neighs/atom = 461.86485
Ave special neighs/atom = 10.461538
Neighbor list builds = 0
Dangerous builds = 0
#minimize 1.0e-8 1.0e-10 10000 10000

#======6.NVT simulation======
# timestep 1.0
# fix 1 all nvt temp 450 450 100.0 drag 0.1
# fix 2 all temp/csvr 450 450 500 54324  # Equivalent to v-rescale Gromacs
# run 10000

#======6.NPT simulation======
# fix 1 all npt temp 450 450 100.0 iso 1.0 1.0 1000.0 drag 1.0
# fix 2 all temp/csvr 450 450 500 54324  # Equivalent to v-rescale Gromacs
# run 10000

Total wall time: 0:00:00
