ITEM: TIMESTEP
0
ITEM: NUMBER OF ATOMS
5616
ITEM: BOX BOUNDS xy xz yz pp pp pp
1.1699999999999999e+00 4.0340000000000003e+01 7.2294999999999998e+00
1.1200000000000001e+00 3.2241399999999999e+01 7.2024999999999997e+00
5.0000000000000000e-01 6.5829499999999996e+01 3.9508000000000001e+00
ITEM: ATOMS id type xs ys zs
1 1 0.000228537 0.0839961 0.0120925
2 2 0.0252474 0.104405 0.00841886
3 2 0.995785 0.0669842 0
4 2 0.964122 0.106147 0.0166847
5 3 0.0208437 0.046171 0.0292364
6 2 0.99575 0.025093 0.0324509
7 2 0.0568432 0.024388 0.0246443
8 3 0.0270756 0.0691074 0.0486763
9 2 0.991265 0.0916265 0.0532684
10 2 0.0527507 0.089427 0.0456149
11 3 0.0467367 0.031628 0.0659733
12 2 0.0827742 0.00986729 0.0612281
13 2 0.0214278 0.0112862 0.0691877
14 3 0.0528611 0.0549325 0.0854132
15 2 0.0786817 0.0749063 0.0821987
16 2 0.0172278 0.0766933 0.0901584
17 3 0.0730339 0.0170851 0.10271
18 2 0.108737 0.994934 0.098118
19 2 0.0473589 0.996766 0.105772
20 3 0.0791583 0.0403896 0.12215
21 2 0.10436 0.0610995 0.118936
22 2 0.0431969 0.0621949 0.126589
23 1 0.0997735 0.00256445 0.139294
24 2 0.0748622 0.981788 0.142968
25 2 0.104324 0.0192084 0.151386
26 2 0.13588 0.980413 0.134702
27 1 0.166774 0.0839961 0.0120925
28 2 0.191793 0.104405 0.00841886
29 2 0.162331 0.0669842 0
30 2 0.130667 0.106147 0.0166847
31 3 0.187793 0.046171 0.0292364
32 2 0.1627 0.025093 0.0324509
33 2 0.223389 0.024388 0.0246443
34 3 0.193621 0.0691074 0.0486763
35 2 0.157811 0.0916265 0.0532684
36 2 0.219296 0.089427 0.0456149
37 3 0.213686 0.031628 0.0659733
38 2 0.24932 0.00986729 0.0612281
39 2 0.187973 0.0112862 0.0691877
40 3 0.219811 0.0549325 0.0854132
41 2 0.245227 0.0749063 0.0821987
42 2 0.183773 0.0766933 0.0901584
43 3 0.239579 0.0170851 0.10271
44 2 0.275282 0.994934 0.098118
45 2 0.214309 0.996766 0.105772
46 3 0.245704 0.0403896 0.12215
47 2 0.270905 0.0610995 0.118936
48 2 0.209742 0.0621949 0.126589
49 1 0.266319 0.00256445 0.139294
50 2 0.241408 0.981788 0.142968
51 2 0.27087 0.0192084 0.151386
52 2 0.302426 0.980413 0.134702
53 1 0.333319 0.0839961 0.0120925
54 2 0.358338 0.104405 0.00841886
55 2 0.32928 0.0669842 0
56 2 0.297212 0.106147 0.0166847
57 3 0.354339 0.046171 0.0292364
58 2 0.329245 0.025093 0.0324509
59 2 0.389934 0.024388 0.0246443
60 3 0.360166 0.0691074 0.0486763
61 2 0.32476 0.0916265 0.0532684
62 2 0.385841 0.089427 0.0456149
63 3 0.380232 0.031628 0.0659733
64 2 0.415865 0.00986729 0.0612281
65 2 0.354519 0.0112862 0.0691877
66 3 0.386356 0.0549325 0.0854132
67 2 0.412177 0.0749063 0.0821987
68 2 0.350723 0.0766933 0.0901584
69 3 0.406529 0.0170851 0.10271
70 2 0.442232 0.994934 0.098118
71 2 0.380854 0.996766 0.105772
72 3 0.412249 0.0403896 0.12215
73 2 0.43745 0.0610995 0.118936
74 2 0.376288 0.0621949 0.126589
75 1 0.433268 0.00256445 0.139294
76 2 0.408357 0.981788 0.142968
77 2 0.437415 0.0192084 0.151386
78 2 0.469376 0.980413 0.134702
79 1 0.499865 0.0839961 0.0120925
80 2 0.524884 0.104405 0.00841886
81 2 0.495826 0.0669842 0
82 2 0.464162 0.106147 0.0166847
83 3 0.520884 0.046171 0.0292364
84 2 0.49579 0.025093 0.0324509
85 2 0.556884 0.024388 0.0246443
86 3 0.527116 0.0691074 0.0486763
87 2 0.491306 0.0916265 0.0532684
88 2 0.552387 0.089427 0.0456149
89 3 0.546777 0.031628 0.0659733
90 2 0.58241 0.00986729 0.0612281
91 2 0.521468 0.0112862 0.0691877
92 3 0.552901 0.0549325 0.0854132
93 2 0.578722 0.0749063 0.0821987
94 2 0.517268 0.0766933 0.0901584
95 3 0.573074 0.0170851 0.10271
96 2 0.608777 0.994934 0.098118
97 2 0.547399 0.996766 0.105772
98 3 0.578794 0.0403896 0.12215
99 2 0.603996 0.0610995 0.118936
100 2 0.543237 0.0621949 0.126589
101 1 0.599814 0.00256445 0.139294
102 2 0.574903 0.981788 0.142968
103 2 0.604365 0.0192084 0.151386
104 2 0.635921 0.980413 0.134702
105 1 0.666814 0.0839961 0.0120925
106 2 0.691833 0.104405 0.00841886
107 2 0.662371 0.0669842 0
108 2 0.630707 0.106147 0.0166847
109 3 0.68743 0.046171 0.0292364
110 2 0.662336 0.025093 0.0324509
111 2 0.723429 0.024388 0.0246443
112 3 0.693661 0.0691074 0.0486763
113 2 0.657851 0.0916265 0.0532684
114 2 0.719336 0.089427 0.0456149
115 3 0.713727 0.031628 0.0659733
116 2 0.74936 0.00986729 0.0612281
117 2 0.688014 0.0112862 0.0691877
118 3 0.719447 0.0549325 0.0854132
119 2 0.745268 0.0749063 0.0821987
120 2 0.683814 0.0766933 0.0901584
121 3 0.73962 0.0170851 0.10271
122 2 0.775323 0.994934 0.098118
123 2 0.713945 0.996766 0.105772
124 3 0.745744 0.0403896 0.12215
125 2 0.770945 0.0610995 0.118936
126 2 0.709783 0.0621949 0.126589
127 1 0.766359 0.00256445 0.139294
128 2 0.741448 0.981788 0.142968
129 2 0.77091 0.0192084 0.151386
130 2 0.802466 0.980413 0.134702
131 1 0.83336 0.0839961 0.0120925
132 2 0.858379 0.104405 0.00841886
133 2 0.829321 0.0669842 0
134 2 0.797253 0.106147 0.0166847
135 3 0.854379 0.046171 0.0292364
136 2 0.829285 0.025093 0.0324509
137 2 0.889974 0.024388 0.0246443
138 3 0.860207 0.0691074 0.0486763
139 2 0.824396 0.0916265 0.0532684
140 2 0.885882 0.089427 0.0456149
141 3 0.880272 0.031628 0.0659733
142 2 0.915905 0.00986729 0.0612281
143 2 0.854559 0.0112862 0.0691877
144 3 0.886397 0.0549325 0.0854132
145 2 0.912217 0.0749063 0.0821987
146 2 0.850763 0.0766933 0.0901584
147 3 0.906569 0.0170851 0.10271
148 2 0.941868 0.994934 0.098118
149 2 0.880894 0.996766 0.105772
150 3 0.91229 0.0403896 0.12215
151 2 0.937491 0.0610995 0.118936
152 2 0.876328 0.0621949 0.126589
153 1 0.933309 0.00256445 0.139294
154 2 0.908398 0.981788 0.142968
155 2 0.937455 0.0192084 0.151386
156 2 0.969416 0.980413 0.134702
157 1 1.29364e-05 0.25072 0.0120925
158 2 0.0250318 0.271129 0.00841886
159 2 0.99557 0.233708 0
160 2 0.963906 0.272871 0.0166847
161 3 0.0211399 0.212527 0.0292364
162 2 0.995939 0.191817 0.0324509
163 2 0.0566276 0.191112 0.0246443
164 3 0.02686 0.235832 0.0486763
165 2 0.99105 0.258351 0.0532684
166 2 0.0525351 0.256151 0.0456149
167 3 0.0469253 0.198352 0.0659733
168 2 0.0826662 0.176224 0.0612281
169 2 0.0212122 0.178011 0.0691877
170 3 0.0530497 0.221657 0.0854132
171 2 0.0788704 0.241631 0.0821987
172 2 0.0174164 0.243418 0.0901584
173 3 0.0732226 0.183809 0.10271
174 2 0.108521 0.161658 0.098118
175 2 0.0475475 0.16349 0.105772
176 3 0.0789427 0.207114 0.12215
177 2 0.104144 0.227824 0.118936
178 2 0.0429813 0.228919 0.126589
179 1 0.0999621 0.169289 0.139294
180 2 0.0750508 0.148512 0.142968
181 2 0.104109 0.185933 0.151386
182 2 0.136069 0.147138 0.134702
183 1 0.166558 0.25072 0.0120925
184 2 0.191577 0.271129 0.00841886
185 2 0.162519 0.233708 0
186 2 0.130451 0.272871 0.0166847
187 3 0.187685 0.212527 0.0292364
188 2 0.162484 0.191817 0.0324509
189 2 0.223577 0.191112 0.0246443
190 3 0.193405 0.235832 0.0486763
191 2 0.157999 0.258351 0.0532684
192 2 0.21908 0.256151 0.0456149
193 3 0.213471 0.198352 0.0659733
194 2 0.249212 0.176224 0.0612281
195 2 0.188162 0.178011 0.0691877
196 3 0.219595 0.221657 0.0854132
197 2 0.245416 0.241631 0.0821987
198 2 0.183962 0.243418 0.0901584
199 3 0.239768 0.183809 0.10271
200 2 0.275471 0.161658 0.098118
201 2 0.214093 0.16349 0.105772
202 3 0.245488 0.207114 0.12215
203 2 0.270689 0.227824 0.118936
204 2 0.209931 0.228919 0.126589
205 1 0.266508 0.169289 0.139294
206 2 0.241596 0.148512 0.142968
207 2 0.271058 0.185933 0.151386
208 2 0.302615 0.147138 0.134702
209 1 0.333508 0.25072 0.0120925
210 2 0.358527 0.271129 0.00841886
211 2 0.329065 0.233708 0
212 2 0.297401 0.272871 0.0166847
213 3 0.354231 0.212527 0.0292364
214 2 0.329029 0.191817 0.0324509
215 2 0.390123 0.191112 0.0246443
216 3 0.360355 0.235832 0.0486763
217 2 0.324545 0.258351 0.0532684
218 2 0.38603 0.256151 0.0456149
219 3 0.38042 0.198352 0.0659733
220 2 0.416161 0.176224 0.0612281
221 2 0.354707 0.178011 0.0691877
222 3 0.38614 0.221657 0.0854132
223 2 0.411961 0.241631 0.0821987
224 2 0.350507 0.243418 0.0901584
225 3 0.406313 0.183809 0.10271
226 2 0.442016 0.161658 0.098118
227 2 0.380638 0.16349 0.105772
228 3 0.412438 0.207114 0.12215
229 2 0.437639 0.227824 0.118936
230 2 0.376476 0.228919 0.126589
231 1 0.433053 0.169289 0.139294
232 2 0.408142 0.148512 0.142968
233 2 0.437604 0.185933 0.151386
234 2 0.46916 0.147138 0.134702
235 1 0.500053 0.25072 0.0120925
236 2 0.525072 0.271129 0.00841886
237 2 0.49561 0.233708 0
238 2 0.463946 0.272871 0.0166847
239 3 0.52118 0.212527 0.0292364
240 2 0.495979 0.191817 0.0324509
241 2 0.556668 0.191112 0.0246443
242 3 0.5269 0.235832 0.0486763
243 2 0.49109 0.258351 0.0532684
244 2 0.552575 0.256151 0.0456149
245 3 0.546966 0.198352 0.0659733
246 2 0.582707 0.176224 0.0612281
247 2 0.521253 0.178011 0.0691877
248 3 0.55309 0.221657 0.0854132
249 2 0.578507 0.241631 0.0821987
250 2 0.517457 0.243418 0.0901584
251 3 0.572859 0.183809 0.10271
252 2 0.608562 0.161658 0.098118
253 2 0.547588 0.16349 0.105772
254 3 0.578983 0.207114 0.12215
255 2 0.604184 0.227824 0.118936
256 2 0.543022 0.228919 0.126589
257 1 0.600003 0.169289 0.139294
258 2 0.575091 0.148512 0.142968
259 2 0.604149 0.185933 0.151386
260 2 0.635705 0.147138 0.134702
261 1 0.666599 0.25072 0.0120925
262 2 0.691618 0.271129 0.00841886
263 2 0.66256 0.233708 0
264 2 0.630492 0.272871 0.0166847
265 3 0.687726 0.212527 0.0292364
266 2 0.662524 0.191817 0.0324509
267 2 0.723618 0.191112 0.0246443
268 3 0.693446 0.235832 0.0486763
269 2 0.65804 0.258351 0.0532684
270 2 0.719121 0.256151 0.0456149
271 3 0.713511 0.198352 0.0659733
272 2 0.749252 0.176224 0.0612281
273 2 0.687798 0.178011 0.0691877
274 3 0.719636 0.221657 0.0854132
275 2 0.745456 0.241631 0.0821987
276 2 0.684002 0.243418 0.0901584
277 3 0.739808 0.183809 0.10271
278 2 0.775511 0.161658 0.098118
279 2 0.714133 0.16349 0.105772
280 3 0.745529 0.207114 0.12215
281 2 0.77073 0.227824 0.118936
282 2 0.709971 0.228919 0.126589
283 1 0.766548 0.169289 0.139294
284 2 0.741637 0.148512 0.142968
285 2 0.771099 0.185933 0.151386
286 2 0.802655 0.147138 0.134702
287 1 0.833548 0.25072 0.0120925
288 2 0.858567 0.271129 0.00841886
289 2 0.829105 0.233708 0
290 2 0.797441 0.272871 0.0166847
291 3 0.854271 0.212527 0.0292364
292 2 0.82907 0.191817 0.0324509
293 2 0.890163 0.191112 0.0246443
294 3 0.860395 0.235832 0.0486763
295 2 0.824585 0.258351 0.0532684
296 2 0.885666 0.256151 0.0456149
297 3 0.880057 0.198352 0.0659733
298 2 0.916202 0.176224 0.0612281
299 2 0.854748 0.178011 0.0691877
300 3 0.886181 0.221657 0.0854132
301 2 0.912002 0.241631 0.0821987
302 2 0.850548 0.243418 0.0901584
303 3 0.906354 0.183809 0.10271
304 2 0.942057 0.161658 0.098118
305 2 0.880679 0.16349 0.105772
306 3 0.912074 0.207114 0.12215
307 2 0.937679 0.227824 0.118936
308 2 0.876517 0.228919 0.126589
309 1 0.933093 0.169289 0.139294
310 2 0.908182 0.148512 0.142968
311 2 0.937644 0.185933 0.151386
312 2 0.9692 0.147138 0.134702
313 1 0.000201572 0.417445 0.0120925
314 2 0.0252204 0.437853 0.00841886
315 2 0.995758 0.400433 0
316 2 0.964202 0.439228 0.0166847
317 3 0.0209243 0.379252 0.0292364
318 2 0.995723 0.358542 0.0324509
319 2 0.0568162 0.357837 0.0246443
320 3 0.0270487 0.402556 0.0486763
321 2 0.991346 0.424707 0.0532684
322 2 0.0523195 0.422876 0.0456149
323 3 0.0468173 0.364709 0.0659733
324 2 0.0828548 0.342948 0.0612281
325 2 0.0214009 0.344735 0.0691877
326 3 0.0528341 0.388381 0.0854132
327 2 0.0786548 0.408355 0.0821987
328 2 0.0172008 0.410142 0.0901584
329 3 0.073007 0.350534 0.10271
330 2 0.10871 0.328383 0.098118
331 2 0.0473319 0.330214 0.105772
332 3 0.0787271 0.373838 0.12215
333 2 0.104333 0.394548 0.118936
334 2 0.0432775 0.395275 0.126589
335 1 0.0998541 0.335645 0.139294
336 2 0.0748352 0.315236 0.142968
337 2 0.104297 0.352657 0.151386
338 2 0.135854 0.313862 0.134702
339 1 0.166747 0.417445 0.0120925
340 2 0.191766 0.437853 0.00841886
341 2 0.162304 0.400433 0
342 2 0.130747 0.439228 0.0166847
343 3 0.187874 0.379252 0.0292364
344 2 0.162268 0.358542 0.0324509
345 2 0.223362 0.357837 0.0246443
346 3 0.193594 0.402556 0.0486763
347 2 0.157891 0.424707 0.0532684
348 2 0.219269 0.422876 0.0456149
349 3 0.213767 0.364709 0.0659733
350 2 0.2494 0.342948 0.0612281
351 2 0.187946 0.344735 0.0691877
352 3 0.219784 0.388381 0.0854132
353 2 0.2452 0.408355 0.0821987
354 2 0.183746 0.410142 0.0901584
355 3 0.239552 0.350534 0.10271
356 2 0.275255 0.328383 0.098118
357 2 0.214282 0.330214 0.105772
358 3 0.245677 0.373838 0.12215
359 2 0.270878 0.394548 0.118936
360 2 0.209823 0.395275 0.126589
361 1 0.266399 0.335645 0.139294
362 2 0.241381 0.315236 0.142968
363 2 0.270843 0.352657 0.151386
364 2 0.302399 0.313862 0.134702
365 1 0.333292 0.417445 0.0120925
366 2 0.358311 0.437853 0.00841886
367 2 0.329253 0.400433 0
368 2 0.297293 0.439228 0.0166847
369 3 0.354419 0.379252 0.0292364
370 2 0.329218 0.358542 0.0324509
371 2 0.389907 0.357837 0.0246443
372 3 0.360139 0.402556 0.0486763
373 2 0.324437 0.424707 0.0532684
374 2 0.385815 0.422876 0.0456149
375 3 0.380312 0.364709 0.0659733
376 2 0.415946 0.342948 0.0612281
377 2 0.354492 0.344735 0.0691877
378 3 0.386329 0.388381 0.0854132
379 2 0.41215 0.408355 0.0821987
380 2 0.350696 0.410142 0.0901584
381 3 0.406502 0.350534 0.10271
382 2 0.442205 0.328383 0.098118
383 2 0.380827 0.330214 0.105772
384 3 0.412222 0.373838 0.12215
385 2 0.437423 0.394548 0.118936
386 2 0.376368 0.395275 0.126589
387 1 0.433349 0.335645 0.139294
388 2 0.40833 0.315236 0.142968
389 2 0.437388 0.352657 0.151386
390 2 0.469349 0.313862 0.134702
391 1 0.499838 0.417445 0.0120925
392 2 0.524857 0.437853 0.00841886
393 2 0.495799 0.400433 0
394 2 0.464243 0.439228 0.0166847
395 3 0.520965 0.379252 0.0292364
396 2 0.495763 0.358542 0.0324509
397 2 0.556857 0.357837 0.0246443
398 3 0.527089 0.402556 0.0486763
399 2 0.491386 0.424707 0.0532684
400 2 0.55236 0.422876 0.0456149
401 3 0.546858 0.364709 0.0659733
402 2 0.582491 0.342948 0.0612281
403 2 0.521441 0.344735 0.0691877
404 3 0.552875 0.388381 0.0854132
405 2 0.578695 0.408355 0.0821987
406 2 0.517241 0.410142 0.0901584
407 3 0.573047 0.350534 0.10271
408 2 0.60875 0.328383 0.098118
409 2 0.547372 0.330214 0.105772
410 3 0.578768 0.373838 0.12215
411 2 0.603969 0.394548 0.118936
412 2 0.543318 0.395275 0.126589
413 1 0.599894 0.335645 0.139294
414 2 0.574876 0.315236 0.142968
415 2 0.604338 0.352657 0.151386
416 2 0.635894 0.313862 0.134702
417 1 0.666787 0.417445 0.0120925
418 2 0.691806 0.437853 0.00841886
419 2 0.662344 0.400433 0
420 2 0.630788 0.439228 0.0166847
421 3 0.68751 0.379252 0.0292364
422 2 0.662309 0.358542 0.0324509
423 2 0.723402 0.357837 0.0246443
424 3 0.693634 0.402556 0.0486763
425 2 0.657932 0.424707 0.0532684
426 2 0.71931 0.422876 0.0456149
427 3 0.713807 0.364709 0.0659733
428 2 0.749441 0.342948 0.0612281
429 2 0.687987 0.344735 0.0691877
430 3 0.71942 0.388381 0.0854132
431 2 0.745241 0.408355 0.0821987
432 2 0.683787 0.410142 0.0901584
433 3 0.739593 0.350534 0.10271
434 2 0.775296 0.328383 0.098118
435 2 0.713918 0.330214 0.105772
436 3 0.745717 0.373838 0.12215
437 2 0.770918 0.394548 0.118936
438 2 0.709863 0.395275 0.126589
439 1 0.76644 0.335645 0.139294
440 2 0.741421 0.315236 0.142968
441 2 0.770883 0.352657 0.151386
442 2 0.802439 0.313862 0.134702
443 1 0.833333 0.417445 0.0120925
444 2 0.858352 0.437853 0.00841886
445 2 0.82889 0.400433 0
446 2 0.797333 0.439228 0.0166847
447 3 0.85446 0.379252 0.0292364
448 2 0.829258 0.358542 0.0324509
449 2 0.889947 0.357837 0.0246443
450 3 0.86018 0.402556 0.0486763
451 2 0.824477 0.424707 0.0532684
452 2 0.885855 0.422876 0.0456149
453 3 0.880353 0.364709 0.0659733
454 2 0.915986 0.342948 0.0612281
455 2 0.854532 0.344735 0.0691877
456 3 0.88637 0.388381 0.0854132
457 2 0.91219 0.408355 0.0821987
458 2 0.850736 0.410142 0.0901584
459 3 0.906542 0.350534 0.10271
460 2 0.941841 0.328383 0.098118
461 2 0.880867 0.330214 0.105772
462 3 0.912263 0.373838 0.12215
463 2 0.937464 0.394548 0.118936
464 2 0.876409 0.395275 0.126589
465 1 0.93339 0.335645 0.139294
466 2 0.908371 0.315236 0.142968
467 2 0.937428 0.352657 0.151386
468 2 0.969389 0.313862 0.134702
469 1 0.999986 0.584169 0.0120925
470 2 0.0250048 0.604578 0.00841886
471 2 0.995543 0.567157 0
472 2 0.963987 0.605952 0.0166847
473 3 0.0211129 0.545976 0.0292364
474 2 0.995912 0.525266 0.0324509
475 2 0.0567082 0.524193 0.0246443
476 3 0.0268331 0.56928 0.0486763
477 2 0.99113 0.591431 0.0532684
478 2 0.0525081 0.5896 0.0456149
479 3 0.0470059 0.531433 0.0659733
480 2 0.0826392 0.509672 0.0612281
481 2 0.0211853 0.511459 0.0691877
482 3 0.0531303 0.554737 0.0854132
483 2 0.0788434 0.575079 0.0821987
484 2 0.0173894 0.576866 0.0901584
485 3 0.0731956 0.517258 0.10271
486 2 0.108602 0.494739 0.098118
487 2 0.0475206 0.496939 0.105772
488 3 0.0789157 0.540563 0.12215
489 2 0.104117 0.561272 0.118936
490 2 0.0430619 0.562 0.126589
491 1 0.100043 0.502369 0.139294
492 2 0.0750239 0.481961 0.142968
493 2 0.104082 0.519381 0.151386
494 2 0.13615 0.480218 0.134702
495 1 0.166531 0.584169 0.0120925
496 2 0.19155 0.604578 0.00841886
497 2 0.162492 0.567157 0
498 2 0.130532 0.605952 0.0166847
499 3 0.187658 0.545976 0.0292364
500 2 0.162457 0.525266 0.0324509
501 2 0.223658 0.524193 0.0246443
502 3 0.193378 0.56928 0.0486763
503 2 0.15808 0.591431 0.0532684
504 2 0.219054 0.5896 0.0456149
505 3 0.213551 0.531433 0.0659733
506 2 0.249185 0.509672 0.0612281
507 2 0.188135 0.511459 0.0691877
508 3 0.219676 0.554737 0.0854132
509 2 0.245389 0.575079 0.0821987
510 2 0.183935 0.576866 0.0901584
511 3 0.239741 0.517258 0.10271
512 2 0.275551 0.494739 0.098118
513 2 0.214066 0.496939 0.105772
514 3 0.245461 0.540563 0.12215
515 2 0.270662 0.561272 0.118936
516 2 0.210012 0.562 0.126589
517 1 0.266588 0.502369 0.139294
518 2 0.241569 0.481961 0.142968
519 2 0.271031 0.519381 0.151386
520 2 0.302695 0.480218 0.134702
521 1 0.333481 0.584169 0.0120925
522 2 0.3585 0.604578 0.00841886
523 2 0.329038 0.567157 0
524 2 0.297482 0.605952 0.0166847
525 3 0.354204 0.545976 0.0292364
526 2 0.329002 0.525266 0.0324509
527 2 0.390203 0.524193 0.0246443
528 3 0.360328 0.56928 0.0486763
529 2 0.324625 0.591431 0.0532684
530 2 0.386003 0.5896 0.0456149
531 3 0.380501 0.531433 0.0659733
532 2 0.416134 0.509672 0.0612281
533 2 0.35468 0.511459 0.0691877
534 3 0.386221 0.554737 0.0854132
535 2 0.411934 0.575079 0.0821987
536 2 0.35048 0.576866 0.0901584
537 3 0.406286 0.517258 0.10271
538 2 0.442097 0.494739 0.098118
539 2 0.380611 0.496939 0.105772
540 3 0.412411 0.540563 0.12215
541 2 0.437612 0.561272 0.118936
542 2 0.376557 0.562 0.126589
543 1 0.433133 0.502369 0.139294
544 2 0.408115 0.481961 0.142968
545 2 0.437577 0.519381 0.151386
546 2 0.469241 0.480218 0.134702
547 1 0.500026 0.584169 0.0120925
548 2 0.525045 0.604578 0.00841886
549 2 0.495583 0.567157 0
550 2 0.464027 0.605952 0.0166847
551 3 0.521153 0.545976 0.0292364
552 2 0.495952 0.525266 0.0324509
553 2 0.556749 0.524193 0.0246443
554 3 0.526873 0.56928 0.0486763
555 2 0.491171 0.591431 0.0532684
556 2 0.552549 0.5896 0.0456149
557 3 0.547046 0.531433 0.0659733
558 2 0.58268 0.509672 0.0612281
559 2 0.521226 0.511459 0.0691877
560 3 0.553171 0.554737 0.0854132
561 2 0.57848 0.575079 0.0821987
562 2 0.51743 0.576866 0.0901584
563 3 0.572832 0.517258 0.10271
564 2 0.608642 0.494739 0.098118
565 2 0.547561 0.496939 0.105772
566 3 0.578956 0.540563 0.12215
567 2 0.604157 0.561272 0.118936
568 2 0.543102 0.562 0.126589
569 1 0.600083 0.502369 0.139294
570 2 0.575064 0.481961 0.142968
571 2 0.604122 0.519381 0.151386
572 2 0.635786 0.480218 0.134702
573 1 0.666572 0.584169 0.0120925
574 2 0.691591 0.604578 0.00841886
575 2 0.662533 0.567157 0
576 2 0.630572 0.605952 0.0166847
577 3 0.687699 0.545976 0.0292364
578 2 0.662497 0.525266 0.0324509
579 2 0.723698 0.524193 0.0246443
580 3 0.693419 0.56928 0.0486763
581 2 0.65812 0.591431 0.0532684
582 2 0.719094 0.5896 0.0456149
583 3 0.713592 0.531433 0.0659733
584 2 0.749225 0.509672 0.0612281
585 2 0.687771 0.511459 0.0691877
586 3 0.719716 0.554737 0.0854132
587 2 0.745429 0.575079 0.0821987
588 2 0.683975 0.576866 0.0901584
589 3 0.739781 0.517258 0.10271
590 2 0.775592 0.494739 0.098118
591 2 0.714106 0.496939 0.105772
592 3 0.745502 0.540563 0.12215
593 2 0.770703 0.561272 0.118936
594 2 0.710052 0.562 0.126589
595 1 0.766629 0.502369 0.139294
596 2 0.74161 0.481961 0.142968
597 2 0.771072 0.519381 0.151386
598 2 0.802736 0.480218 0.134702
599 1 0.833521 0.584169 0.0120925
600 2 0.85854 0.604578 0.00841886
601 2 0.829078 0.567157 0
602 2 0.797522 0.605952 0.0166847
603 3 0.854244 0.545976 0.0292364
604 2 0.829043 0.525266 0.0324509
605 2 0.890244 0.524193 0.0246443
606 3 0.860369 0.56928 0.0486763
607 2 0.824666 0.591431 0.0532684
608 2 0.885639 0.5896 0.0456149
609 3 0.880137 0.531433 0.0659733
610 2 0.916175 0.509672 0.0612281
611 2 0.854721 0.511459 0.0691877
612 3 0.886262 0.554737 0.0854132
613 2 0.911975 0.575079 0.0821987
614 2 0.850521 0.576866 0.0901584
615 3 0.906327 0.517258 0.10271
616 2 0.942137 0.494739 0.098118
617 2 0.880652 0.496939 0.105772
618 3 0.912047 0.540563 0.12215
619 2 0.937652 0.561272 0.118936
620 2 0.876597 0.562 0.126589
621 1 0.933174 0.502369 0.139294
622 2 0.908155 0.481961 0.142968
623 2 0.937617 0.519381 0.151386
624 2 0.969281 0.480218 0.134702
625 1 0.000282166 0.750525 0.0120925
626 2 0.0251934 0.771302 0.00841886
627 2 0.995731 0.733881 0
628 2 0.964175 0.772676 0.0166847
629 3 0.0208973 0.7127 0.0292364
630 2 0.995696 0.69199 0.0324509
631 2 0.0568968 0.690917 0.0246443
632 3 0.0270217 0.736005 0.0486763
633 2 0.991319 0.758156 0.0532684
634 2 0.0522925 0.756324 0.0456149
635 3 0.0467903 0.698157 0.0659733
636 2 0.0828279 0.676397 0.0612281
637 2 0.0213739 0.678184 0.0691877
638 3 0.0529147 0.721462 0.0854132
639 2 0.0786278 0.741804 0.0821987
640 2 0.0172814 0.743223 0.0901584
641 3 0.07298 0.683982 0.10271
642 2 0.10879 0.661463 0.098118
643 2 0.047305 0.663663 0.105772
644 3 0.0788077 0.706919 0.12215
645 2 0.104306 0.727997 0.118936
646 2 0.0432505 0.728724 0.126589
647 1 0.0998271 0.669094 0.139294
648 2 0.0748083 0.648685 0.142968
649 2 0.10427 0.686106 0.151386
650 2 0.135934 0.646943 0.134702
651 1 0.166828 0.750525 0.0120925
652 2 0.191739 0.771302 0.00841886
653 2 0.162277 0.733881 0
654 2 0.130721 0.772676 0.0166847
655 3 0.187847 0.7127 0.0292364
656 2 0.162241 0.69199 0.0324509
657 2 0.223442 0.690917 0.0246443
658 3 0.193567 0.736005 0.0486763
659 2 0.157864 0.758156 0.0532684
660 2 0.219242 0.756324 0.0456149
661 3 0.21374 0.698157 0.0659733
662 2 0.249373 0.676397 0.0612281
663 2 0.187919 0.678184 0.0691877
664 3 0.219864 0.721462 0.0854132
665 2 0.245173 0.741804 0.0821987
666 2 0.183827 0.743223 0.0901584
667 3 0.239525 0.683982 0.10271
668 2 0.275336 0.661463 0.098118
669 2 0.214255 0.663663 0.105772
670 3 0.245757 0.706919 0.12215
671 2 0.270851 0.727997 0.118936
672 2 0.209796 0.728724 0.126589
673 1 0.266372 0.669094 0.139294
674 2 0.241354 0.648685 0.142968
675 2 0.270816 0.686106 0.151386
676 2 0.30248 0.646943 0.134702
677 1 0.333373 0.750525 0.0120925
678 2 0.358284 0.771302 0.00841886
679 2 0.329226 0.733881 0
680 2 0.297266 0.772676 0.0166847
681 3 0.354392 0.7127 0.0292364
682 2 0.329191 0.69199 0.0324509
683 2 0.389988 0.690917 0.0246443
684 3 0.360112 0.736005 0.0486763
685 2 0.32441 0.758156 0.0532684
686 2 0.385788 0.756324 0.0456149
687 3 0.380285 0.698157 0.0659733
688 2 0.415919 0.676397 0.0612281
689 2 0.354465 0.678184 0.0691877
690 3 0.38641 0.721462 0.0854132
691 2 0.412123 0.741804 0.0821987
692 2 0.350776 0.743223 0.0901584
693 3 0.406475 0.683982 0.10271
694 2 0.442285 0.661463 0.098118
695 2 0.3808 0.663663 0.105772
696 3 0.412303 0.706919 0.12215
697 2 0.437396 0.727997 0.118936
698 2 0.376341 0.728724 0.126589
699 1 0.433322 0.669094 0.139294
700 2 0.408303 0.648685 0.142968
701 2 0.437361 0.686106 0.151386
702 2 0.469429 0.646943 0.134702
703 1 0.499918 0.750525 0.0120925
704 2 0.52483 0.771302 0.00841886
705 2 0.495772 0.733881 0
706 2 0.464216 0.772676 0.0166847
707 3 0.520938 0.7127 0.0292364
708 2 0.495736 0.69199 0.0324509
709 2 0.556937 0.690917 0.0246443
710 3 0.527062 0.736005 0.0486763
711 2 0.491359 0.758156 0.0532684
712 2 0.552333 0.756324 0.0456149
713 3 0.546831 0.698157 0.0659733
714 2 0.582464 0.676397 0.0612281
715 2 0.521414 0.678184 0.0691877
716 3 0.552955 0.721462 0.0854132
717 2 0.578668 0.741804 0.0821987
718 2 0.517322 0.743223 0.0901584
719 3 0.57302 0.683982 0.10271
720 2 0.608831 0.661463 0.098118
721 2 0.547345 0.663663 0.105772
722 3 0.578848 0.706919 0.12215
723 2 0.603942 0.727997 0.118936
724 2 0.543291 0.728724 0.126589
725 1 0.599868 0.669094 0.139294
726 2 0.574849 0.648685 0.142968
727 2 0.604311 0.686106 0.151386
728 2 0.635975 0.646943 0.134702
729 1 0.666868 0.750525 0.0120925
730 2 0.691779 0.771302 0.00841886
731 2 0.662317 0.733881 0
732 2 0.630761 0.772676 0.0166847
733 3 0.687483 0.7127 0.0292364
734 2 0.662282 0.69199 0.0324509
735 2 0.723483 0.690917 0.0246443
736 3 0.693608 0.736005 0.0486763
737 2 0.657905 0.758156 0.0532684
738 2 0.719283 0.756324 0.0456149
739 3 0.71378 0.698157 0.0659733
740 2 0.749414 0.676397 0.0612281
741 2 0.68796 0.678184 0.0691877
742 3 0.719501 0.721462 0.0854132
743 2 0.745214 0.741804 0.0821987
744 2 0.683867 0.743223 0.0901584
745 3 0.739566 0.683982 0.10271
746 2 0.775376 0.661463 0.098118
747 2 0.713891 0.663663 0.105772
748 3 0.745798 0.706919 0.12215
749 2 0.770892 0.727997 0.118936
750 2 0.709836 0.728724 0.126589
751 1 0.766413 0.669094 0.139294
752 2 0.741394 0.648685 0.142968
753 2 0.770856 0.686106 0.151386
754 2 0.80252 0.646943 0.134702
755 1 0.833413 0.750525 0.0120925
756 2 0.858325 0.771302 0.00841886
757 2 0.828863 0.733881 0
758 2 0.797306 0.772676 0.0166847
759 3 0.854433 0.7127 0.0292364
760 2 0.829231 0.69199 0.0324509
761 2 0.890028 0.690917 0.0246443
762 3 0.860153 0.736005 0.0486763
763 2 0.82445 0.758156 0.0532684
764 2 0.885828 0.756324 0.0456149
765 3 0.880326 0.698157 0.0659733
766 2 0.915959 0.676397 0.0612281
767 2 0.854505 0.678184 0.0691877
768 3 0.88645 0.721462 0.0854132
769 2 0.912163 0.741804 0.0821987
770 2 0.850817 0.743223 0.0901584
771 3 0.906515 0.683982 0.10271
772 2 0.941922 0.661463 0.098118
773 2 0.88084 0.663663 0.105772
774 3 0.912343 0.706919 0.12215
775 2 0.937437 0.727997 0.118936
776 2 0.876382 0.728724 0.126589
777 1 0.933363 0.669094 0.139294
778 2 0.908344 0.648685 0.142968
779 2 0.937402 0.686106 0.151386
780 2 0.96947 0.646943 0.134702
781 1 6.65661e-05 0.91725 0.0120925
782 2 0.0250854 0.937658 0.00841886
783 2 0.995516 0.900606 0
784 2 0.96396 0.939401 0.0166847
785 3 0.021086 0.879425 0.0292364
786 2 0.995885 0.858715 0.0324509
787 2 0.0566812 0.857642 0.0246443
788 3 0.0268061 0.902729 0.0486763
789 2 0.991103 0.92488 0.0532684
790 2 0.0524811 0.923049 0.0456149
791 3 0.046979 0.864882 0.0659733
792 2 0.0826123 0.843121 0.0612281
793 2 0.0211583 0.844908 0.0691877
794 3 0.0531033 0.888186 0.0854132
795 2 0.0788164 0.908528 0.0821987
796 2 0.01747 0.909947 0.0901584
797 3 0.0731686 0.850707 0.10271
798 2 0.108575 0.828188 0.098118
799 2 0.0474936 0.830387 0.105772
800 3 0.0789963 0.873643 0.12215
801 2 0.10409 0.894721 0.118936
802 2 0.0430349 0.895448 0.126589
803 1 0.100016 0.835818 0.139294
804 2 0.0749969 0.815409 0.142968
805 2 0.104162 0.852462 0.151386
806 2 0.136123 0.813667 0.134702
807 1 0.166612 0.91725 0.0120925
808 2 0.191631 0.937658 0.00841886
809 2 0.162465 0.900606 0
810 2 0.130505 0.939401 0.0166847
811 3 0.187631 0.879425 0.0292364
812 2 0.16243 0.858715 0.0324509
813 2 0.223631 0.857642 0.0246443
814 3 0.193351 0.902729 0.0486763
815 2 0.158053 0.92488 0.0532684
816 2 0.219027 0.923049 0.0456149
817 3 0.213524 0.864882 0.0659733
818 2 0.249158 0.843121 0.0612281
819 2 0.188108 0.844908 0.0691877
820 3 0.219649 0.888186 0.0854132
821 2 0.245362 0.908528 0.0821987
822 2 0.184015 0.909947 0.0901584
823 3 0.239714 0.850707 0.10271
824 2 0.275524 0.828188 0.098118
825 2 0.214039 0.830387 0.105772
826 3 0.245542 0.873643 0.12215
827 2 0.270635 0.894721 0.118936
828 2 0.209985 0.895448 0.126589
829 1 0.266561 0.835818 0.139294
830 2 0.241542 0.815409 0.142968
831 2 0.271112 0.852462 0.151386
832 2 0.302668 0.813667 0.134702
833 1 0.333562 0.91725 0.0120925
834 2 0.35858 0.937658 0.00841886
835 2 0.329011 0.900606 0
836 2 0.297455 0.939401 0.0166847
837 3 0.354177 0.879425 0.0292364
838 2 0.328975 0.858715 0.0324509
839 2 0.390176 0.857642 0.0246443
840 3 0.360301 0.902729 0.0486763
841 2 0.324598 0.92488 0.0532684
842 2 0.385976 0.923049 0.0456149
843 3 0.380474 0.864882 0.0659733
844 2 0.416107 0.843121 0.0612281
845 2 0.354653 0.844908 0.0691877
846 3 0.386194 0.888186 0.0854132
847 2 0.411907 0.908528 0.0821987
848 2 0.350561 0.909947 0.0901584
849 3 0.406259 0.850707 0.10271
850 2 0.44207 0.828188 0.098118
851 2 0.380584 0.830387 0.105772
852 3 0.412491 0.873643 0.12215
853 2 0.437585 0.894721 0.118936
854 2 0.37653 0.895448 0.126589
855 1 0.433107 0.835818 0.139294
856 2 0.408088 0.815409 0.142968
857 2 0.437657 0.852462 0.151386
858 2 0.469214 0.813667 0.134702
859 1 0.500107 0.91725 0.0120925
860 2 0.525126 0.937658 0.00841886
861 2 0.495556 0.900606 0
862 2 0.464 0.939401 0.0166847
863 3 0.521126 0.879425 0.0292364
864 2 0.495925 0.858715 0.0324509
865 2 0.556722 0.857642 0.0246443
866 3 0.526847 0.902729 0.0486763
867 2 0.491144 0.92488 0.0532684
868 2 0.552522 0.923049 0.0456149
869 3 0.547019 0.864882 0.0659733
870 2 0.582653 0.843121 0.0612281
871 2 0.521199 0.844908 0.0691877
872 3 0.553144 0.888186 0.0854132
873 2 0.578453 0.908528 0.0821987
874 2 0.51751 0.909947 0.0901584
875 3 0.572805 0.850707 0.10271
876 2 0.608615 0.828188 0.098118
877 2 0.547534 0.830387 0.105772
878 3 0.579037 0.873643 0.12215
879 2 0.604131 0.894721 0.118936
880 2 0.543075 0.895448 0.126589
881 1 0.600056 0.835818 0.139294
882 2 0.575037 0.815409 0.142968
883 2 0.604203 0.852462 0.151386
884 2 0.635759 0.813667 0.134702
885 1 0.666652 0.91725 0.0120925
886 2 0.691671 0.937658 0.00841886
887 2 0.662506 0.900606 0
888 2 0.630545 0.939401 0.0166847
889 3 0.687672 0.879425 0.0292364
890 2 0.66247 0.858715 0.0324509
891 2 0.723671 0.857642 0.0246443
892 3 0.693392 0.902729 0.0486763
893 2 0.658093 0.92488 0.0532684
894 2 0.719067 0.923049 0.0456149