5616
 Atoms. Timestep: 0
1 1.87 3.45 1.29
2 2.61 3.99 1.05
2 26.288 2.94 0.5
2 25.908 4.07 1.59
3 2.23 2.49 2.41
2 26.218 1.93 2.62
2 2.93 1.88 2.11
3 2.69 3.19 3.68
2 26.738 3.82 3.98
2 3.45 3.73 3.48
3 3.03 2.24 4.81
2 3.73 1.63 4.5
2 2.28 1.7 5.02
3 3.49 2.95 6.08
2 4.25 3.48 5.87
2 2.8 3.56 6.39
3 3.84 1.99 7.21
2 11.7595 28.5406 6.91
2 10.3095 28.6206 7.41
3 4.3 2.7 8.48
2 5.05 3.25 8.27
2 3.6 3.31 8.77
1 4.66 1.74 9.6
2 11.1495 28.3606 9.84
2 4.98 2.24 10.39
2 12.5895 28.2906 9.3
1 5.99 3.45 1.29
2 6.73 3.99 1.05
2 5.67 2.94 0.5
2 5.29 4.07 1.59
3 6.36 2.49 2.41
2 5.61 1.93 2.62
2 7.05 1.88 2.11
3 6.81 3.19 3.68
2 6.12 3.82 3.98
2 7.57 3.73 3.48
3 7.16 2.24 4.81
2 7.85 1.63 4.5
2 6.4 1.7 5.02
3 7.62 2.95 6.08
2 8.37 3.48 5.87
2 6.92 3.56 6.39
3 7.96 1.99 7.21
2 15.8795 28.5406 6.91
2 14.4395 28.6206 7.41
3 8.42 2.7 8.48
2 9.17 3.25 8.27
2 7.72 3.31 8.77
1 8.78 1.74 9.6
2 15.2695 28.3606 9.84
2 9.1 2.24 10.39
2 16.7095 28.2906 9.3
1 10.11 3.45 1.29
2 10.85 3.99 1.05
2 9.8 2.94 0.5
2 9.41 4.07 1.59
3 10.48 2.49 2.41
2 9.73 1.93 2.62
2 11.17 1.88 2.11
3 10.93 3.19 3.68
2 10.25 3.82 3.98
2 11.69 3.73 3.48
3 11.28 2.24 4.81
2 11.97 1.63 4.5
2 10.52 1.7 5.02
3 11.74 2.95 6.08
2 12.5 3.48 5.87
2 11.05 3.56 6.39
3 12.09 1.99 7.21
2 20.0095 28.5406 6.91
2 18.5595 28.6206 7.41
3 12.54 2.7 8.48
2 13.29 3.25 8.27
2 11.84 3.31 8.77
1 12.91 1.74 9.6
2 19.3995 28.3606 9.84
2 13.22 2.24 10.39
2 20.8395 28.2906 9.3
1 14.23 3.45 1.29
2 14.97 3.99 1.05
2 13.92 2.94 0.5
2 13.54 4.07 1.59
3 14.6 2.49 2.41
2 13.85 1.93 2.62
2 15.3 1.88 2.11
3 15.06 3.19 3.68
2 14.37 3.82 3.98
2 15.81 3.73 3.48
3 15.4 2.24 4.81
2 16.09 1.63 4.5
2 14.65 1.7 5.02
3 15.86 2.95 6.08
2 16.62 3.48 5.87
2 15.17 3.56 6.39
3 16.21 1.99 7.21
2 24.1295 28.5406 6.91
2 22.6795 28.6206 7.41
3 16.66 2.7 8.48
2 17.41 3.25 8.27
2 15.97 3.31 8.77
1 17.03 1.74 9.6
2 23.5195 28.3606 9.84
2 17.35 2.24 10.39
2 24.9595 28.2906 9.3
1 18.36 3.45 1.29
2 19.1 3.99 1.05
2 18.04 2.94 0.5
2 17.66 4.07 1.59
3 18.72 2.49 2.41
2 17.97 1.93 2.62
2 19.42 1.88 2.11
3 19.18 3.19 3.68
2 18.49 3.82 3.98
2 19.94 3.73 3.48
3 19.53 2.24 4.81
2 20.22 1.63 4.5
2 18.77 1.7 5.02
3 19.98 2.95 6.08
2 20.74 3.48 5.87
2 19.29 3.56 6.39
3 20.33 1.99 7.21
2 28.2495 28.5406 6.91
2 26.7995 28.6206 7.41
3 20.79 2.7 8.48
2 21.54 3.25 8.27
2 20.09 3.31 8.77
1 21.15 1.74 9.6
2 27.6395 28.3606 9.84
2 21.47 2.24 10.39
2 29.0795 28.2906 9.3
1 22.48 3.45 1.29
2 23.22 3.99 1.05
2 22.17 2.94 0.5
2 21.78 4.07 1.59
3 22.85 2.49 2.41
2 22.1 1.93 2.62
2 23.54 1.88 2.11
3 23.3 3.19 3.68
2 22.61 3.82 3.98
2 24.06 3.73 3.48
3 23.65 2.24 4.81
2 24.34 1.63 4.5
2 22.89 1.7 5.02
3 24.11 2.95 6.08
2 24.87 3.48 5.87
2 23.42 3.56 6.39
3 24.46 1.99 7.21
2 32.3695 28.5406 6.91
2 30.9295 28.6206 7.41
3 24.91 2.7 8.48
2 25.66 3.25 8.27
2 24.21 3.31 8.77
1 25.28 1.74 9.6
2 31.7695 28.3606 9.84
2 25.59 2.24 10.39
2 33.2095 28.2906 9.3
1 3.07 7.98 1.29
2 3.81 8.52 1.05
2 27.488 7.47 0.5
2 27.108 8.6 1.59
3 3.44 7.01 2.41
2 27.428 6.46 2.62
2 4.13 6.41 2.11
3 3.89 7.72 3.68
2 27.938 8.35 3.98
2 4.65 8.26 3.48
3 4.24 6.77 4.81
2 4.93 6.15 4.5
2 3.48 6.23 5.02
3 4.7 7.48 6.08
2 5.46 8.01 5.87
2 4.01 8.09 6.39
3 5.05 6.52 7.21
2 5.73 5.9 6.91
2 4.29 5.98 7.41
3 5.5 7.23 8.48
2 6.25 7.78 8.27
2 4.8 7.84 8.77
1 5.87 6.27 9.6
2 5.13 5.72 9.84
2 6.18 6.77 10.39
2 6.57 5.65 9.3
1 7.19 7.98 1.29
2 7.93 8.52 1.05
2 6.88 7.47 0.5
2 6.49 8.6 1.59
3 7.56 7.01 2.41
2 6.81 6.46 2.62
2 8.26 6.41 2.11
3 8.01 7.72 3.68
2 7.33 8.35 3.98
2 8.77 8.26 3.48
3 8.36 6.77 4.81
2 9.05 6.15 4.5
2 7.61 6.23 5.02
3 8.82 7.48 6.08
2 9.58 8.01 5.87
2 8.13 8.09 6.39
3 9.17 6.52 7.21
2 9.86 5.9 6.91
2 8.41 5.98 7.41
3 9.62 7.23 8.48
2 10.37 7.78 8.27
2 8.93 7.84 8.77
1 9.99 6.27 9.6
2 9.25 5.72 9.84
2 10.31 6.77 10.39
2 10.69 5.65 9.3
1 11.32 7.98 1.29
2 12.06 8.52 1.05
2 11 7.47 0.5
2 10.62 8.6 1.59
3 11.68 7.01 2.41
2 10.93 6.46 2.62
2 12.38 6.41 2.11
3 12.14 7.72 3.68
2 11.45 8.35 3.98
2 12.9 8.26 3.48
3 12.49 6.77 4.81
2 13.18 6.15 4.5
2 11.73 6.23 5.02
3 12.94 7.48 6.08
2 13.7 8.01 5.87
2 12.25 8.09 6.39
3 13.29 6.52 7.21
2 13.98 5.9 6.91
2 12.53 5.98 7.41
3 13.75 7.23 8.48
2 14.5 7.78 8.27
2 13.05 7.84 8.77
1 14.11 6.27 9.6
2 13.37 5.72 9.84
2 14.43 6.77 10.39
2 14.81 5.65 9.3
1 15.44 7.98 1.29
2 16.18 8.52 1.05
2 15.12 7.47 0.5
2 14.74 8.6 1.59
3 15.81 7.01 2.41
2 15.06 6.46 2.62
2 16.5 6.41 2.11
3 16.26 7.72 3.68
2 15.57 8.35 3.98
2 17.02 8.26 3.48
3 16.61 6.77 4.81
2 17.3 6.15 4.5
2 15.85 6.23 5.02
3 17.07 7.48 6.08
2 17.82 8.01 5.87
2 16.38 8.09 6.39
3 17.41 6.52 7.21
2 18.1 5.9 6.91
2 16.66 5.98 7.41
3 17.87 7.23 8.48
2 18.62 7.78 8.27
2 17.17 7.84 8.77
1 18.24 6.27 9.6
2 17.5 5.72 9.84
2 18.55 6.77 10.39
2 18.93 5.65 9.3
1 19.56 7.98 1.29
2 20.3 8.52 1.05
2 19.25 7.47 0.5
2 18.86 8.6 1.59
3 19.93 7.01 2.41
2 19.18 6.46 2.62
2 20.63 6.41 2.11
3 20.38 7.72 3.68
2 19.7 8.35 3.98
2 21.14 8.26 3.48
3 20.73 6.77 4.81
2 21.42 6.15 4.5
2 19.97 6.23 5.02
3 21.19 7.48 6.08
2 21.95 8.01 5.87
2 20.5 8.09 6.39
3 21.54 6.52 7.21
2 22.23 5.9 6.91
2 20.78 5.98 7.41
3 21.99 7.23 8.48
2 22.74 7.78 8.27
2 21.3 7.84 8.77
1 22.36 6.27 9.6
2 21.62 5.72 9.84
2 22.68 6.77 10.39
2 23.06 5.65 9.3
1 23.69 7.98 1.29
2 24.43 8.52 1.05
2 23.37 7.47 0.5
2 22.99 8.6 1.59
3 24.05 7.01 2.41
2 23.3 6.46 2.62
2 24.75 6.41 2.11
3 24.51 7.72 3.68
2 23.82 8.35 3.98
2 25.26 8.26 3.48
3 24.85 6.77 4.81
2 25.55 6.15 4.5
2 24.1 6.23 5.02
3 25.31 7.48 6.08
2 26.07 8.01 5.87
2 24.62 8.09 6.39
3 25.66 6.52 7.21
2 26.35 5.9 6.91
2 24.9 5.98 7.41
3 26.11 7.23 8.48
2 26.87 7.78 8.27
2 25.42 7.84 8.77
1 26.48 6.27 9.6
2 25.74 5.72 9.84
2 26.8 6.77 10.39
2 27.18 5.65 9.3
1 4.28 12.51 1.29
2 5.02 13.05 1.05
2 28.698 12 0.5
2 28.318 13.12 1.59
3 4.64 11.54 2.41
2 28.628 10.99 2.62
2 5.34 10.94 2.11
3 5.1 12.25 3.68
2 29.148 12.87 3.98
2 5.85 12.79 3.48
3 5.44 11.29 4.81
2 6.14 10.68 4.5
2 4.69 10.76 5.02
3 5.9 12.01 6.08
2 6.66 12.54 5.87
2 5.21 12.62 6.39
3 6.25 11.05 7.21
2 6.94 10.43 6.91
2 5.49 10.51 7.41
3 6.7 11.76 8.48
2 7.46 12.31 8.27
2 6.01 12.36 8.77
1 7.07 10.79 9.6
2 6.33 10.25 9.84
2 7.39 11.3 10.39
2 7.77 10.18 9.3
1 8.4 12.51 1.29
2 9.14 13.05 1.05
2 8.08 12 0.5
2 7.7 13.12 1.59
3 8.77 11.54 2.41
2 8.01 10.99 2.62
2 9.46 10.94 2.11
3 9.22 12.25 3.68
2 8.53 12.87 3.98
2 9.98 12.79 3.48
3 9.57 11.29 4.81
2 10.26 10.68 4.5
2 8.81 10.76 5.02
3 10.03 12.01 6.08
2 10.78 12.54 5.87
2 9.33 12.62 6.39
3 10.37 11.05 7.21
2 11.06 10.43 6.91
2 9.62 10.51 7.41
3 10.83 11.76 8.48
2 11.58 12.31 8.27
2 10.13 12.36 8.77
1 11.19 10.79 9.6
2 10.45 10.25 9.84
2 11.51 11.3 10.39
2 11.89 10.18 9.3
1 12.52 12.51 1.29
2 13.26 13.05 1.05
2 12.21 12 0.5
2 11.82 13.12 1.59
3 12.89 11.54 2.41
2 12.14 10.99 2.62
2 13.58 10.94 2.11
3 13.34 12.25 3.68
2 12.65 12.87 3.98
2 14.1 12.79 3.48
3 13.69 11.29 4.81
2 14.38 10.68 4.5
2 12.93 10.76 5.02
3 14.15 12.01 6.08
2 14.91 12.54 5.87
2 13.46 12.62 6.39
3 14.5 11.05 7.21
2 15.19 10.43 6.91
2 13.74 10.51 7.41
3 14.95 11.76 8.48
2 15.7 12.31 8.27
2 14.25 12.36 8.77
1 15.32 10.79 9.6
2 14.58 10.25 9.84
2 15.63 11.3 10.39
2 16.02 10.18 9.3
1 16.64 12.51 1.29
2 17.38 13.05 1.05
2 16.33 12 0.5
2 15.95 13.12 1.59
3 17.01 11.54 2.41
2 16.26 10.99 2.62
2 17.71 10.94 2.11
3 17.47 12.25 3.68
2 16.78 12.87 3.98
2 18.22 12.79 3.48
3 17.81 11.29 4.81
2 18.5 10.68 4.5
2 17.06 10.76 5.02
3 18.27 12.01 6.08
2 19.03 12.54 5.87
2 17.58 12.62 6.39
3 18.62 11.05 7.21
2 19.31 10.43 6.91
2 17.86 10.51 7.41
3 19.07 11.76 8.48
2 19.82 12.31 8.27
2 18.38 12.36 8.77
1 19.44 10.79 9.6
2 18.7 10.25 9.84
2 19.76 11.3 10.39
2 20.14 10.18 9.3
1 20.77 12.51 1.29
2 21.51 13.05 1.05
2 20.45 12 0.5
2 20.07 13.12 1.59
3 21.13 11.54 2.41
2 20.38 10.99 2.62
2 21.83 10.94 2.11
3 21.59 12.25 3.68
2 20.9 12.87 3.98
2 22.35 12.79 3.48
3 21.94 11.29 4.81
2 22.63 10.68 4.5
2 21.18 10.76 5.02
3 22.39 12.01 6.08
2 23.15 12.54 5.87
2 21.7 12.62 6.39
3 22.74 11.05 7.21
2 23.43 10.43 6.91
2 21.98 10.51 7.41
3 23.2 11.76 8.48
2 23.95 12.31 8.27
2 22.5 12.36 8.77
1 23.56 10.79 9.6
2 22.82 10.25 9.84
2 23.88 11.3 10.39
2 24.26 10.18 9.3
1 24.89 12.51 1.29
2 25.63 13.05 1.05
2 24.57 12 0.5
2 24.19 13.12 1.59
3 25.26 11.54 2.41
2 24.51 10.99 2.62
2 25.95 10.94 2.11
3 25.71 12.25 3.68
2 25.02 12.87 3.98
2 26.47 12.79 3.48
3 26.06 11.29 4.81
2 26.75 10.68 4.5
2 25.3 10.76 5.02
3 26.52 12.01 6.08
2 27.28 12.54 5.87
2 25.83 12.62 6.39
3 26.87 11.05 7.21
2 27.55 10.43 6.91
2 26.11 10.51 7.41
3 27.32 11.76 8.48
2 28.07 12.31 8.27
2 26.62 12.36 8.77
1 27.69 10.79 9.6
2 26.95 10.25 9.84
2 28 11.3 10.39
2 28.39 10.18 9.3
1 30.218 17.04 1.29
2 6.22 17.58 1.05
2 29.898 16.53 0.5
2 29.518 17.65 1.59
3 5.85 16.07 2.41
2 29.838 15.52 2.62
2 6.54 15.46 2.11
3 6.3 16.78 3.68
2 30.348 17.4 3.98
2 7.06 17.32 3.48
3 6.65 15.82 4.81
2 7.34 15.21 4.5
2 5.89 15.29 5.02
3 7.11 16.53 6.08
2 7.87 17.07 5.87
2 6.42 17.15 6.39
3 7.46 15.58 7.21
2 8.14 14.95 6.91
2 6.7 15.04 7.41
3 7.91 16.29 8.48
2 8.66 16.84 8.27
2 7.21 16.89 8.77
1 8.28 15.32 9.6
2 7.54 14.78 9.84
2 8.59 15.83 10.39
2 8.98 14.7 9.3
1 9.6 17.04 1.29
2 10.34 17.58 1.05
2 9.29 16.53 0.5
2 8.9 17.65 1.59
3 9.97 16.07 2.41
2 9.22 15.52 2.62
2 10.67 15.46 2.11
3 10.42 16.78 3.68
2 9.74 17.4 3.98
2 11.18 17.32 3.48
3 10.77 15.82 4.81
2 11.46 15.21 4.5
2 10.02 15.29 5.02
3 11.23 16.53 6.08
2 11.99 17.07 5.87
2 10.54 17.15 6.39
3 11.58 15.58 7.21
2 12.27 14.95 6.91
2 10.82 15.04 7.41
3 12.03 16.29 8.48
2 12.78 16.84 8.27
2 11.34 16.89 8.77
1 12.4 15.32 9.6
2 11.66 14.78 9.84
2 12.72 15.83 10.39
2 13.1 14.7 9.3
1 13.73 17.04 1.29
2 14.47 17.58 1.05
2 13.41 16.53 0.5
2 13.03 17.65 1.59
3 14.09 16.07 2.41
2 13.34 15.52 2.62
2 14.79 15.46 2.11
3 14.55 16.78 3.68
2 13.86 17.4 3.98
2 15.31 17.32 3.48
3 14.9 15.82 4.81
2 15.59 15.21 4.5
2 14.14 15.29 5.02
3 15.35 16.53 6.08
2 16.11 17.07 5.87
2 14.66 17.15 6.39
3 15.7 15.58 7.21
2 16.39 14.95 6.91
2 14.94 15.04 7.41
3 16.16 16.29 8.48
2 16.91 16.84 8.27
2 15.46 16.89 8.77
1 16.52 15.32 9.6
2 15.78 14.78 9.84
2 16.84 15.83 10.39
2 17.22 14.7 9.3
1 17.85 17.04 1.29
2 18.59 17.58 1.05
2 17.53 16.53 0.5
2 17.15 17.65 1.59
3 18.22 16.07 2.41
2 17.47 15.52 2.62
2 18.91 15.46 2.11
3 18.67 16.78 3.68
2 17.98 17.4 3.98
2 19.43 17.32 3.48
3 19.02 15.82 4.81
2 19.71 15.21 4.5
2 18.26 15.29 5.02
3 19.48 16.53 6.08
2 20.23 17.07 5.87
2 18.79 17.15 6.39
3 19.82 15.58 7.21
2 20.51 14.95 6.91
2 19.07 15.04 7.41
3 20.28 16.29 8.48
2 21.03 16.84 8.27
2 19.58 16.89 8.77
1 20.65 15.32 9.6
2 19.91 14.78 9.84
2 20.96 15.83 10.39
2 21.34 14.7 9.3
1 21.97 17.04 1.29
2 22.71 17.58 1.05
2 21.66 16.53 0.5
2 21.27 17.65 1.59
3 22.34 16.07 2.41
2 21.59 15.52 2.62
2 23.04 15.46 2.11
3 22.79 16.78 3.68
2 22.11 17.4 3.98
2 23.55 17.32 3.48
3 23.14 15.82 4.81
2 23.83 15.21 4.5
2 22.38 15.29 5.02
3 23.6 16.53 6.08
2 24.36 17.07 5.87
2 22.91 17.15 6.39
3 23.95 15.58 7.21
2 24.64 14.95 6.91
2 23.19 15.04 7.41
3 24.4 16.29 8.48
2 25.15 16.84 8.27
2 23.71 16.89 8.77
1 24.77 15.32 9.6
2 24.03 14.78 9.84
2 25.09 15.83 10.39
2 25.47 14.7 9.3
1 26.1 17.04 1.29
2 26.84 17.58 1.05
2 25.78 16.53 0.5
2 25.4 17.65 1.59
3 26.46 16.07 2.41
2 25.71 15.52 2.62
2 27.16 15.46 2.11
3 26.92 16.78 3.68
2 26.23 17.4 3.98
2 27.67 17.32 3.48
3 27.26 15.82 4.81
2 27.96 15.21 4.5
2 26.51 15.29 5.02
3 27.72 16.53 6.08
2 28.48 17.07 5.87
2 27.03 17.15 6.39
3 28.07 15.58 7.21
2 28.76 14.95 6.91
2 27.31 15.04 7.41
3 28.52 16.29 8.48
2 29.28 16.84 8.27
2 27.83 16.89 8.77
1 28.89 15.32 9.6
2 28.15 14.78 9.84
2 29.21 15.83 10.39
2 29.59 14.7 9.3
1 6.69 21.56 1.29
2 7.43 22.11 1.05
2 31.108 21.06 0.5
2 30.728 22.18 1.59
3 7.05 20.6 2.41
2 31.038 20.05 2.62
2 7.75 19.99 2.11
3 7.51 21.31 3.68
2 31.558 21.93 3.98
2 8.26 21.85 3.48
3 7.85 20.35 4.81
2 8.55 19.74 4.5
2 7.1 19.82 5.02
3 8.31 21.06 6.08
2 9.07 21.6 5.87
2 7.62 21.67 6.39
3 8.66 20.11 7.21
2 9.35 19.48 6.91
2 7.9 19.57 7.41
3 9.11 20.81 8.48
2 9.87 21.37 8.27
2 8.42 21.42 8.77
1 9.48 19.85 9.6
2 8.74 19.31 9.84
2 9.8 20.36 10.39
2 10.18 19.23 9.3
1 10.81 21.56 1.29
2 11.55 22.11 1.05
2 10.49 21.06 0.5
2 10.11 22.18 1.59
3 11.18 20.6 2.41
2 10.42 20.05 2.62
2 11.87 19.99 2.11
3 11.63 21.31 3.68
2 10.94 21.93 3.98
2 12.39 21.85 3.48
3 11.98 20.35 4.81
2 12.67 19.74 4.5
2 11.22 19.82 5.02
3 12.44 21.06 6.08
2 13.19 21.6 5.87
2 11.74 21.67 6.39
3 12.78 20.11 7.21
2 13.47 19.48 6.91
2 12.03 19.57 7.41
3 13.24 20.81 8.48
2 13.99 21.37 8.27
2 12.54 21.42 8.77
1 13.6 19.85 9.6
2 12.86 19.31 9.84
2 13.92 20.36 10.39
2 14.3 19.23 9.3
1 14.93 21.56 1.29
2 15.67 22.11 1.05
2 14.62 21.06 0.5
2 14.23 22.18 1.59
3 15.3 20.6 2.41
2 14.55 20.05 2.62
2 15.99 19.99 2.11
3 15.75 21.31 3.68
2 15.06 21.93 3.98
2 16.51 21.85 3.48
3 16.1 20.35 4.81
2 16.79 19.74 4.5
2 15.34 19.82 5.02
3 16.56 21.06 6.08
2 17.32 21.6 5.87
2 15.87 21.67 6.39
3 16.91 20.11 7.21
2 17.6 19.48 6.91
2 16.15 19.57 7.41
3 17.36 20.81 8.48
2 18.11 21.37 8.27
2 16.66 21.42 8.77
1 17.73 19.85 9.6
2 16.99 19.31 9.84
2 18.04 20.36 10.39
2 18.43 19.23 9.3
1 19.05 21.56 1.29
2 19.79 22.11 1.05
2 18.74 21.06 0.5
2 18.36 22.18 1.59
3 19.42 20.6 2.41
2 18.67 20.05 2.62
2 20.12 19.99 2.11
3 19.88 21.31 3.68
2 19.19 21.93 3.98
2 20.63 21.85 3.48
3 20.22 20.35 4.81
2 20.91 19.74 4.5
2 19.47 19.82 5.02
3 20.68 21.06 6.08
2 21.44 21.6 5.87
2 19.99 21.67 6.39
3 21.03 20.11 7.21
2 21.72 19.48 6.91
2 20.27 19.57 7.41
3 21.48 20.81 8.48
2 22.23 21.37 8.27
2 20.79 21.42 8.77
1 21.85 19.85 9.6
2 21.11 19.31 9.84
2 22.17 20.36 10.39
2 22.55 19.23 9.3
1 23.18 21.56 1.29
2 23.92 22.11 1.05
2 22.86 21.06 0.5
2 22.48 22.18 1.59
3 23.54 20.6 2.41
2 22.79 20.05 2.62
2 24.24 19.99 2.11
3 24 21.31 3.68
2 23.31 21.93 3.98
2 24.76 21.85 3.48
3 24.35 20.35 4.81
2 25.04 19.74 4.5
2 23.59 19.82 5.02
3 24.8 21.06 6.08
2 25.56 21.6 5.87
2 24.11 21.67 6.39
3 25.15 20.11 7.21
2 25.84 19.48 6.91
2 24.39 19.57 7.41
3 25.61 20.81 8.48
2 26.36 21.37 8.27
2 24.91 21.42 8.77
1 25.97 19.85 9.6
2 25.23 19.31 9.84
2 26.29 20.36 10.39
2 26.67 19.23 9.3
1 27.3 21.56 1.29
2 28.04 22.11 1.05
2 26.98 21.06 0.5
2 26.6 22.18 1.59
3 27.67 20.6 2.41
2 26.92 20.05 2.62
2 28.36 19.99 2.11
3 28.12 21.31 3.68
2 27.43 21.93 3.98
2 28.88 21.85 3.48
3 28.47 20.35 4.81
2 29.16 19.74 4.5
2 27.71 19.82 5.02
3 28.93 21.06 6.08
2 29.69 21.6 5.87
2 28.24 21.67 6.39
3 29.28 20.11 7.21
2 29.96 19.48 6.91
2 28.52 19.57 7.41
3 29.73 20.81 8.48
2 30.48 21.37 8.27
2 29.03 21.42 8.77
1 30.1 19.85 9.6
2 29.36 19.31 9.84
2 30.41 20.36 10.39
2 30.8 19.23 9.3
1 7.89 26.09 1.29
2 8.63 26.63 1.05
2 32.308 25.59 0.5
2 31.928 26.71 1.59
3 8.26 25.13 2.41
2 32.248 24.58 2.62
2 8.95 24.52 2.11
3 8.71 25.84 3.68
2 32.758 26.46 3.98
2 9.47 26.38 3.48
3 9.06 24.88 4.81
2 9.75 24.27 4.5
2 8.3 24.35 5.02
3 9.52 25.59 6.08
2 10.28 26.13 5.87
2 8.83 26.2 6.39
3 9.87 24.64 7.21
2 10.55 24.01 6.91
2 9.11 24.1 7.41
3 10.32 25.34 8.48
2 11.07 25.9 8.27
2 9.62 25.95 8.77
1 10.69 24.38 9.6
2 9.95 23.84 9.84
2 11 24.88 10.39
2 11.39 23.76 9.3
1 12.01 26.09 1.29
2 12.75 26.63 1.05
2 11.7 25.59 0.5
2 11.31 26.71 1.59
3 12.38 25.13 2.41
2 11.63 24.58 2.62
2 13.08 24.52 2.11
3 12.83 25.84 3.68
2 12.15 26.46 3.98
2 13.59 26.38 3.48
3 13.18 24.88 4.81
2 13.87 24.27 4.5
2 12.43 24.35 5.02
3 13.64 25.59 6.08
2 14.4 26.13 5.87
2 12.95 26.2 6.39
3 13.99 24.64 7.21
2 14.68 24.01 6.91
2 13.23 24.1 7.41
3 14.44 25.34 8.48
2 15.19 25.9 8.27
2 13.75 25.95 8.77
1 14.81 24.38 9.6
2 14.07 23.84 9.84
2 15.13 24.88 10.39
2 15.51 23.76 9.3
1 16.14 26.09 1.29
2 16.88 26.63 1.05
2 15.82 25.59 0.5
2 15.44 26.71 1.59
3 16.5 25.13 2.41
2 15.75 24.58 2.62
2 17.2 24.52 2.11
3 16.96 25.84 3.68
2 16.27 26.46 3.98
2 17.72 26.38 3.48
3 17.31 24.88 4.81
2 18 24.27 4.5
2 16.55 24.35 5.02
3 17.76 25.59 6.08
2 18.52 26.13 5.87
2 17.07 26.2 6.39
3 18.11 24.64 7.21
2 18.8 24.01 6.91
2 17.35 24.1 7.41
3 18.57 25.34 8.48
2 19.32 25.9 8.27
2 17.87 25.95 8.77
1 18.93 24.38 9.6
2 18.19 23.84 9.84
2 19.25 24.88 10.39
2 19.63 23.76 9.3
1 20.26 26.09 1.29
2 21 26.63 1.05
2 19.94 25.59 0.5
2 19.56 26.71 1.59
3 20.63 25.13 2.41
2 19.88 24.58 2.62
2 21.32 24.52 2.11
3 21.08 25.84 3.68
2 20.39 26.46 3.98
2 21.84 26.38 3.48
3 21.43 24.88 4.81
2 22.12 24.27 4.5
2 20.67 24.35 5.02
3 21.89 25.59 6.08
2 22.64 26.13 5.87
2 21.2 26.2 6.39
3 22.23 24.64 7.21
2 22.92 24.01 6.91
2 21.48 24.1 7.41
3 22.69 25.34 8.48
2 23.44 25.9 8.27
2 21.99 25.95 8.77
1 23.06 24.38 9.6
2 22.32 23.84 9.84
2 23.37 24.88 10.39
2 23.75 23.76 9.3
1 24.38 26.09 1.29
2 25.12 26.63 1.05
2 24.07 25.59 0.5
2 23.68 26.71 1.59
3 24.75 25.13 2.41
2 24 24.58 2.62
2 25.45 24.52 2.11
3 25.2 25.84 3.68
2 24.52 26.46 3.98
2 25.96 26.38 3.48
3 25.55 24.88 4.81
2 26.24 24.27 4.5
2 24.79 24.35 5.02
3 26.01 25.59 6.08
2 26.77 26.13 5.87
2 25.32 26.2 6.39
3 26.36 24.64 7.21
2 27.05 24.01 6.91
2 25.6 24.1 7.41
3 26.81 25.34 8.48
2 27.56 25.9 8.27
2 26.12 25.95 8.77
1 27.18 24.38 9.6
2 26.44 23.84 9.84
2 27.5 24.88 10.39
2 27.88 23.76 9.3
1 28.51 26.09 1.29
2 29.25 26.63 1.05
2 28.19 25.59 0.5
2 27.81 26.71 1.59
3 28.87 25.13 2.41
2 28.12 24.58 2.62
2 29.57 24.52 2.11
3 29.33 25.84 3.68
2 28.64 26.46 3.98
2 30.08 26.38 3.48
3 29.67 24.88 4.81
2 30.37 24.27 4.5
2 28.92 24.35 5.02
3 30.13 25.59 6.08
2 30.89 26.13 5.87
2 29.44 26.2 6.39
3 30.48 24.64 7.21
2 31.17 24.01 6.91
2 29.72 24.1 7.41
3 30.93 25.34 8.48
2 31.69 25.9 8.27
2 30.24 25.95 8.77
1 31.3 24.38 9.6
2 30.56 23.84 9.84
2 31.62 24.88 10.39
2 32 23.76 9.3
1 3.07 4.11 12.18
2 3.81 4.65 11.94
2 27.488 3.6 11.39
2 27.108 4.73 12.48
3 3.43 3.14 13.3
2 27.418 2.59 13.51
2 4.13 2.54 13
3 3.89 3.85 14.56
2 27.938 4.48 14.87
2 4.65 4.39 14.36
3 4.24 2.9 15.7
2 4.93 2.28 15.39
2 3.48 2.36 15.91
3 4.69 3.61 16.97
2 5.45 4.14 16.75
2 4 4.22 17.28
3 5.04 2.65 18.1
2 12.9595 29.2006 17.8
2 11.5095 29.2806 18.3
3 5.5 3.36 19.37
2 6.25 3.91 19.16
2 4.8 3.97 19.66
1 5.86 2.4 20.48
2 12.3495 29.0206 20.73
2 6.18 2.9 21.28
2 13.7895 28.9506 20.19
1 7.19 4.11 12.18
2 7.93 4.65 11.94
2 6.87 3.6 11.39
2 6.49 4.73 12.48
3 7.56 3.14 13.3
2 6.81 2.59 13.51
2 8.25 2.54 13
3 8.01 3.85 14.56
2 7.32 4.48 14.87
2 8.77 4.39 14.36
3 8.36 2.9 15.7
2 9.05 2.28 15.39
2 7.6 2.36 15.91
3 8.82 3.61 16.97
2 9.57 4.14 16.75
2 8.13 4.22 17.28
3 9.16 2.65 18.1
2 17.0795 29.2006 17.8
2 15.6395 29.2806 18.3
3 9.62 3.36 19.37
2 10.37 3.91 19.16
2 8.92 3.97 19.66
1 9.99 2.4 20.48
2 16.4795 29.0206 20.73
2 10.3 2.9 21.28
2 17.9095 28.9506 20.19
1 11.31 4.11 12.18
2 12.05 4.65 11.94
2 11 3.6 11.39
2 10.61 4.73 12.48
3 11.68 3.14 13.3
2 10.93 2.59 13.51
2 12.38 2.54 13
3 12.13 3.85 14.56
2 11.45 4.48 14.87
2 12.89 4.39 14.36
3 12.48 2.9 15.7
2 13.17 2.28 15.39
2 11.72 2.36 15.91
3 12.94 3.61 16.97
2 13.7 4.14 16.75
2 12.25 4.22 17.28
3 13.29 2.65 18.1
2 21.2095 29.2006 17.8
2 19.7595 29.2806 18.3
3 13.74 3.36 19.37
2 14.49 3.91 19.16
2 13.05 3.97 19.66
1 14.11 2.4 20.48
2 20.5995 29.0206 20.73
2 14.43 2.9 21.28
2 22.0395 28.9506 20.19
1 15.44 4.11 12.18
2 16.18 4.65 11.94
2 15.12 3.6 11.39
2 14.74 4.73 12.48
3 15.8 3.14 13.3
2 15.05 2.59 13.51
2 16.5 2.54 13
3 16.26 3.85 14.56
2 15.57 4.48 14.87
2 17.01 4.39 14.36
3 16.6 2.9 15.7
2 17.3 2.28 15.39
2 15.85 2.36 15.91
3 17.06 3.61 16.97
2 17.82 4.14 16.75
2 16.37 4.22 17.28
3 17.41 2.65 18.1
2 25.3295 29.2006 17.8
2 23.8795 29.2806 18.3
3 17.86 3.36 19.37
2 18.62 3.91 19.16
2 17.17 3.97 19.66
1 18.23 2.4 20.48
2 24.7195 29.0206 20.73
2 18.55 2.9 21.28
2 26.1595 28.9506 20.19
1 19.56 4.11 12.18
2 20.3 4.65 11.94
2 19.24 3.6 11.39
2 18.86 4.73 12.48
3 19.93 3.14 13.3
2 19.17 2.59 13.51
2 20.62 2.54 13
3 20.38 3.85 14.56
2 19.69 4.48 14.87
2 21.14 4.39 14.36
3 20.73 2.9 15.7
2 21.42 2.28 15.39
2 19.97 2.36 15.91
3 21.19 3.61 16.97
2 21.94 4.14 16.75
2 20.49 4.22 17.28
3 21.53 2.65 18.1
2 29.4495 29.2006 17.8
2 28.0095 29.2806 18.3
3 21.99 3.36 19.37
2 22.74 3.91 19.16
2 21.29 3.97 19.66
1 22.35 2.4 20.48
2 28.8395 29.0206 20.73
2 22.67 2.9 21.28
2 30.2795 28.9506 20.19
1 23.68 4.11 12.18
2 24.42 4.65 11.94
2 23.37 3.6 11.39
2 22.98 4.73 12.48
3 24.05 3.14 13.3
2 23.3 2.59 13.51
2 24.74 2.54 13
3 24.5 3.85 14.56
2 23.81 4.48 14.87
2 25.26 4.39 14.36
3 24.85 2.9 15.7
2 25.54 2.28 15.39
2 24.09 2.36 15.91
3 25.31 3.61 16.97
2 26.07 4.14 16.75
2 24.62 4.22 17.28
3 25.66 2.65 18.1
2 33.5795 29.2006 17.8
2 32.1295 29.2806 18.3
3 26.11 3.36 19.37
2 26.86 3.91 19.16
2 25.41 3.97 19.66
1 26.48 2.4 20.48
2 32.9695 29.0206 20.73
2 26.79 2.9 21.28
2 34.4095 28.9506 20.19
1 29.008 8.64 12.18
2 5.01 9.18 11.94
2 28.698 8.13 11.39
2 28.308 9.25 12.48
3 4.64 7.67 13.3
2 28.628 7.12 13.51
2 5.33 7.07 13
3 5.09 8.38 14.56
2 29.138 9 14.87
2 5.85 8.92 14.36
3 5.44 7.42 15.7
2 6.13 6.81 15.39
2 4.68 6.89 15.91
3 5.9 8.14 16.97
2 6.66 8.67 16.75
2 5.21 8.75 17.28
3 6.25 7.18 18.1
2 6.94 6.56 17.8
2 5.49 6.64 18.3
3 6.7 7.89 19.37
2 7.45 8.44 19.16
2 6 8.49 19.66
1 7.07 6.92 20.48
2 6.33 6.38 20.73
2 7.38 7.43 21.28
2 7.77 6.31 20.19
1 8.39 8.64 12.18
2 9.13 9.18 11.94
2 8.08 8.13 11.39
2 7.7 9.25 12.48
3 8.76 7.67 13.3
2 8.01 7.12 13.51
2 9.46 7.07 13
3 9.22 8.38 14.56
2 8.53 9 14.87
2 9.97 8.92 14.36
3 9.56 7.42 15.7
2 10.25 6.81 15.39
2 8.81 6.89 15.91
3 10.02 8.14 16.97
2 10.78 8.67 16.75
2 9.33 8.75 17.28
3 10.37 7.18 18.1
2 11.06 6.56 17.8
2 9.61 6.64 18.3
3 10.82 7.89 19.37
2 11.57 8.44 19.16
2 10.13 8.49 19.66
1 11.19 6.92 20.48
2 10.45 6.38 20.73
2 11.51 7.43 21.28
2 11.89 6.31 20.19
1 12.52 8.64 12.18
2 13.26 9.18 11.94
2 12.2 8.13 11.39
2 11.82 9.25 12.48
3 12.88 7.67 13.3
2 12.13 7.12 13.51
2 13.58 7.07 13
3 13.34 8.38 14.56
2 12.65 9 14.87
2 14.1 8.92 14.36
3 13.69 7.42 15.7
2 14.38 6.81 15.39
2 12.93 6.89 15.91
3 14.14 8.14 16.97
2 14.9 8.67 16.75
2 13.45 8.75 17.28
3 14.49 7.18 18.1
2 15.18 6.56 17.8
2 13.73 6.64 18.3
3 14.95 7.89 19.37
2 15.7 8.44 19.16
2 14.25 8.49 19.66
1 15.31 6.92 20.48
2 14.57 6.38 20.73
2 15.63 7.43 21.28
2 16.01 6.31 20.19
1 16.64 8.64 12.18
2 17.38 9.18 11.94
2 16.32 8.13 11.39
2 15.94 9.25 12.48
3 17.01 7.67 13.3
2 16.26 7.12 13.51
2 17.7 7.07 13
3 17.46 8.38 14.56
2 16.77 9 14.87
2 18.22 8.92 14.36
3 17.81 7.42 15.7
2 18.5 6.81 15.39
2 17.05 6.89 15.91
3 18.27 8.14 16.97
2 19.03 8.67 16.75
2 17.58 8.75 17.28
3 18.62 7.18 18.1
2 19.3 6.56 17.8
2 17.86 6.64 18.3
3 19.07 7.89 19.37
2 19.82 8.44 19.16
2 18.37 8.49 19.66
1 19.44 6.92 20.48
2 18.7 6.38 20.73
2 19.75 7.43 21.28
2 20.14 6.31 20.19
1 20.76 8.64 12.18
2 21.5 9.18 11.94
2 20.45 8.13 11.39
2 20.06 9.25 12.48
3 21.13 7.67 13.3
2 20.38 7.12 13.51
2 21.83 7.07 13
3 21.58 8.38 14.56
2 20.9 9 14.87
2 22.34 8.92 14.36
3 21.93 7.42 15.7
2 22.62 6.81 15.39
2 21.18 6.89 15.91
3 22.39 8.14 16.97
2 23.15 8.67 16.75
2 21.7 8.75 17.28
3 22.74 7.18 18.1
2 23.43 6.56 17.8
2 21.98 6.64 18.3
3 23.19 7.89 19.37
2 23.94 8.44 19.16
2 22.5 8.49 19.66
1 23.56 6.92 20.48
2 22.82 6.38 20.73
2 23.88 7.43 21.28
2 24.26 6.31 20.19
1 24.89 8.64 12.18
2 25.63 9.18 11.94
2 24.57 8.13 11.39
2 24.19 9.25 12.48
3 25.25 7.67 13.3
2 24.5 7.12 13.51
2 25.95 7.07 13
3 25.71 8.38 14.56
2 25.02 9 14.87
2 26.47 8.92 14.36
3 26.06 7.42 15.7
2 26.75 6.81 15.39
2 25.3 6.89 15.91
3 26.51 8.14 16.97
2 27.27 8.67 16.75
2 25.82 8.75 17.28
3 26.86 7.18 18.1
2 27.55 6.56 17.8
2 26.1 6.64 18.3
3 27.32 7.89 19.37
2 28.07 8.44 19.16
2 26.62 8.49 19.66
1 27.68 6.92 20.48
2 26.94 6.38 20.73
2 28 7.43 21.28
2 28.38 6.31 20.19
1 5.48 13.17 12.18
2 6.22 13.71 11.94
2 29.898 12.66 11.39
2 29.518 13.78 12.48
3 5.84 12.2 13.3
2 29.828 11.65 13.51
2 6.54 11.59 13
3 6.3 12.91 14.56
2 30.348 13.53 14.87
2 7.06 13.45 14.36
3 6.65 11.95 15.7
2 7.34 11.34 15.39
2 5.89 11.42 15.91
3 7.1 12.66 16.97
2 7.86 13.2 16.75
2 6.41 13.28 17.28
3 7.45 11.71 18.1
2 8.14 11.08 17.8
2 6.69 11.17 18.3
3 7.91 12.42 19.37
2 8.66 12.97 19.16
2 7.21 13.02 19.66
1 8.27 11.45 20.48
2 7.53 10.91 20.73
2 8.59 11.96 21.28
2 8.97 10.83 20.19
1 9.6 13.17 12.18
2 10.34 13.71 11.94
2 9.28 12.66 11.39
2 8.9 13.78 12.48
3 9.97 12.2 13.3
2 9.22 11.65 13.51
2 10.66 11.59 13
3 10.42 12.91 14.56
2 9.73 13.53 14.87
2 11.18 13.45 14.36
3 10.77 11.95 15.7
2 11.46 11.34 15.39
2 10.01 11.42 15.91
3 11.23 12.66 16.97
2 11.98 13.2 16.75
2 10.54 13.28 17.28
3 11.57 11.71 18.1
2 12.26 11.08 17.8
2 10.82 11.17 18.3
3 12.03 12.42 19.37
2 12.78 12.97 19.16
2 11.33 13.02 19.66
1 12.4 11.45 20.48
2 11.66 10.91 20.73
2 12.71 11.96 21.28
2 13.09 10.83 20.19
1 13.72 13.17 12.18
2 14.46 13.71 11.94
2 13.41 12.66 11.39
2 13.02 13.78 12.48
3 14.09 12.2 13.3
2 13.34 11.65 13.51
2 14.79 11.59 13
3 14.54 12.91 14.56
2 13.86 13.53 14.87
2 15.3 13.45 14.36
3 14.89 11.95 15.7
2 15.58 11.34 15.39
2 14.13 11.42 15.91
3 15.35 12.66 16.97
2 16.11 13.2 16.75
2 14.66 13.28 17.28
3 15.7 11.71 18.1
2 16.39 11.08 17.8
2 14.94 11.17 18.3
3 16.15 12.42 19.37
2 16.9 12.97 19.16
2 15.46 13.02 19.66
1 16.52 11.45 20.48
2 15.78 10.91 20.73
2 16.84 11.96 21.28
2 17.22 10.83 20.19
1 17.85 13.17 12.18
2 18.59 13.71 11.94
2 17.53 12.66 11.39
2 17.15 13.78 12.48
3 18.21 12.2 13.3
2 17.46 11.65 13.51
2 18.91 11.59 13
3 18.67 12.91 14.56
2 17.98 13.53 14.87
2 19.42 13.45 14.36
3 19.01 11.95 15.7
2 19.71 11.34 15.39
2 18.26 11.42 15.91
3 19.47 12.66 16.97
2 20.23 13.2 16.75
2 18.78 13.28 17.28
3 19.82 11.71 18.1
2 20.51 11.08 17.8
2 19.06 11.17 18.3
3 20.27 12.42 19.37
2 21.03 12.97 19.16
2 19.58 13.02 19.66
1 20.64 11.45 20.48
2 19.9 10.91 20.73
2 20.96 11.96 21.28
2 21.34 10.83 20.19
1 21.97 13.17 12.18
2 22.71 13.71 11.94
2 21.65 12.66 11.39
2 21.27 13.78 12.48
3 22.34 12.2 13.3
2 21.58 11.65 13.51
2 23.03 11.59 13
3 22.79 12.91 14.56
2 22.1 13.53 14.87
2 23.55 13.45 14.36
3 23.14 11.95 15.7
2 23.83 11.34 15.39
2 22.38 11.42 15.91
3 23.6 12.66 16.97
2 24.35 13.2 16.75
2 22.9 13.28 17.28
3 23.94 11.71 18.1
2 24.63 11.08 17.8
2 23.19 11.17 18.3
3 24.4 12.42 19.37
2 25.15 12.97 19.16
2 23.7 13.02 19.66
1 24.76 11.45 20.48
2 24.02 10.91 20.73
2 25.08 11.96 21.28
2 25.46 10.83 20.19
1 26.09 13.17 12.18
2 26.83 13.71 11.94
2 25.78 12.66 11.39
2 25.39 13.78 12.48
3 26.46 12.2 13.3
2 25.71 11.65 13.51
2 27.15 11.59 13
3 26.91 12.91 14.56
2 26.22 13.53 14.87
2 27.67 13.45 14.36
3 27.26 11.95 15.7
2 27.95 11.34 15.39
2 26.5 11.42 15.91
3 27.72 12.66 16.97
2 28.48 13.2 16.75
2 27.03 13.28 17.28
3 28.07 11.71 18.1
2 28.76 11.08 17.8
2 27.31 11.17 18.3
3 28.52 12.42 19.37
2 29.27 12.97 19.16
2 27.82 13.02 19.66
1 28.89 11.45 20.48
2 28.15 10.91 20.73
2 29.2 11.96 21.28
2 29.59 10.83 20.19
1 6.68 17.69 12.18
2 7.42 18.24 11.94
2 31.108 17.19 11.39
2 30.718 18.31 12.48
3 7.05 16.73 13.3
2 31.038 16.18 13.51
2 7.74 16.12 13
3 7.5 17.44 14.56
2 31.548 18.06 14.87
2 8.26 17.98 14.36
3 7.85 16.48 15.7
2 8.54 15.87 15.39
2 7.09 15.95 15.91
3 8.31 17.19 16.97
2 9.07 17.73 16.75
2 7.62 17.8 17.28
3 8.66 16.24 18.1
2 9.35 15.61 17.8
2 7.9 15.7 18.3
3 9.11 16.94 19.37
2 9.86 17.5 19.16
2 8.41 17.55 19.66
1 9.48 15.98 20.48
2 8.74 15.44 20.73
2 9.79 16.49 21.28
2 10.18 15.36 20.19
1 10.8 17.69 12.18
2 11.54 18.24 11.94
2 10.49 17.19 11.39
2 10.11 18.31 12.48
3 11.17 16.73 13.3
2 10.42 16.18 13.51
2 11.87 16.12 13
3 11.63 17.44 14.56
2 10.94 18.06 14.87
2 12.38 17.98 14.36
3 11.97 16.48 15.7
2 12.66 15.87 15.39
2 11.22 15.95 15.91
3 12.43 17.19 16.97
2 13.19 17.73 16.75
2 11.74 17.8 17.28
3 12.78 16.24 18.1
2 13.47 15.61 17.8
2 12.02 15.7 18.3
3 13.23 16.94 19.37
2 13.98 17.5 19.16
2 12.54 17.55 19.66
1 13.6 15.98 20.48
2 12.86 15.44 20.73
2 13.92 16.49 21.28
2 14.3 15.36 20.19
1 14.93 17.69 12.18
2 15.67 18.24 11.94
2 14.61 17.19 11.39
2 14.23 18.31 12.48
3 15.29 16.73 13.3
2 14.54 16.18 13.51
2 15.99 16.12 13
3 15.75 17.44 14.56
2 15.06 18.06 14.87
2 16.51 17.98 14.36
3 16.1 16.48 15.7
2 16.79 15.87 15.39
2 15.34 15.95 15.91
3 16.55 17.19 16.97
2 17.31 17.73 16.75
2 15.86 17.8 17.28
3 16.9 16.24 18.1
2 17.59 15.61 17.8
2 16.14 15.7 18.3
3 17.36 16.94 19.37
2 18.11 17.5 19.16
2 16.66 17.55 19.66
1 17.72 15.98 20.48
2 16.98 15.44 20.73
2 18.04 16.49 21.28
2 18.42 15.36 20.19
1 19.05 17.69 12.18
2 19.79 18.24 11.94
2 18.73 17.19 11.39
2 18.35 18.31 12.48
3 19.42 16.73 13.3
2 18.67 16.18 13.51
2 20.11 16.12 13
3 19.87 17.44 14.56
2 19.18 18.06 14.87
2 20.63 17.98 14.36
3 20.22 16.48 15.7
2 20.91 15.87 15.39
2 19.46 15.95 15.91
3 20.68 17.19 16.97
2 21.44 17.73 16.75
2 19.99 17.8 17.28
3 21.03 16.24 18.1
2 21.71 15.61 17.8
2 20.27 15.7 18.3
3 21.48 16.94 19.37
2 22.23 17.5 19.16
2 20.78 17.55 19.66
1 21.85 15.98 20.48
2 21.11 15.44 20.73
2 22.16 16.49 21.28
2 22.55 15.36 20.19
1 23.17 17.69 12.18
2 23.91 18.24 11.94
2 22.86 17.19 11.39
2 22.47 18.31 12.48
3 23.54 16.73 13.3
2 22.79 16.18 13.51
2 24.24 16.12 13
3 23.99 17.44 14.56
2 23.31 18.06 14.87
2 24.75 17.98 14.36
3 24.34 16.48 15.7
2 25.03 15.87 15.39
2 23.59 15.95 15.91
3 24.8 17.19 16.97
2 25.56 17.73 16.75
2 24.11 17.8 17.28
3 25.15 16.24 18.1
2 25.84 15.61 17.8
2 24.39 15.7 18.3
3 25.6 16.94 19.37
2 26.35 17.5 19.16
2 24.91 17.55 19.66
1 25.97 15.98 20.48
2 25.23 15.44 20.73
2 26.29 16.49 21.28
2 26.67 15.36 20.19
1 27.3 17.69 12.18
2 28.04 18.24 11.94
2 26.98 17.19 11.39
2 26.6 18.31 12.48
3 27.66 16.73 13.3
2 26.91 16.18 13.51
2 28.36 16.12 13
3 28.12 17.44 14.56
2 27.43 18.06 14.87
2 28.88 17.98 14.36
3 28.47 16.48 15.7
2 29.16 15.87 15.39
2 27.71 15.95 15.91
3 28.92 17.19 16.97
2 29.68 17.73 16.75
2 28.23 17.8 17.28
3 29.27 16.24 18.1
2 29.96 15.61 17.8
2 28.51 15.7 18.3
3 29.73 16.94 19.37
2 30.48 17.5 19.16
2 29.03 17.55 19.66
1 30.09 15.98 20.48
2 29.35 15.44 20.73
2 30.41 16.49 21.28
2 30.79 15.36 20.19
1 7.89 22.22 12.18
2 8.63 22.76 11.94
2 32.308 21.72 11.39
2 31.928 22.84 12.48
3 8.25 21.26 13.3
2 32.238 20.71 13.51
2 8.95 20.65 13
3 8.71 21.97 14.56
2 32.758 22.59 14.87
2 9.47 22.51 14.36
3 9.06 21.01 15.7
2 9.75 20.4 15.39
2 8.3 20.48 15.91
3 9.51 21.72 16.97
2 10.27 22.26 16.75
2 8.82 22.33 17.28
3 9.86 20.77 18.1
2 10.55 20.14 17.8
2 9.1 20.23 18.3
3 10.32 21.47 19.37
2 11.07 22.03 19.16
2 9.62 22.08 19.66
1 10.68 20.51 20.48
2 9.94 19.97 20.73
2 11 21.01 21.28
2 11.38 19.89 20.19
1 12.01 22.22 12.18
2 12.75 22.76 11.94
2 11.69 21.72 11.39
2 11.31 22.84 12.48
3 12.38 21.26 13.3
2 11.63 20.71 13.51
2 13.07 20.65 13
3 12.83 21.97 14.56
2 12.14 22.59 14.87
2 13.59 22.51 14.36
3 13.18 21.01 15.7
2 13.87 20.4 15.39
2 12.42 20.48 15.91
3 13.64 21.72 16.97
2 14.39 22.26 16.75
2 12.95 22.33 17.28
3 13.98 20.77 18.1
2 14.67 20.14 17.8
2 13.23 20.23 18.3
3 14.44 21.47 19.37
2 15.19 22.03 19.16
2 13.74 22.08 19.66
1 14.81 20.51 20.48
2 14.07 19.97 20.73
2 15.12 21.01 21.28