ITEM: TIMESTEP
0
ITEM: NUMBER OF ATOMS
3900
ITEM: BOX BOUNDS xy xz yz pp pp pp
1.1699999999999999e+00 3.7934699999999999e+01 6.0246000000000004e+00
1.1200000000000001e+00 2.7054600000000001e+01 6.0021000000000004e+00
5.0000000000000000e-01 5.4941299999999998e+01 3.2924000000000002e+00
ITEM: ATOMS id type xs ys zs
1 1 0.000228508 0.100795 0.014511
2 2 0.0252473 0.125285 0.0101026
3 2 0.995785 0.0803809 0
4 2 0.964121 0.127376 0.0200216
5 3 0.0208437 0.055405 0.0350837
6 2 0.99575 0.0301115 0.038941
7 2 0.0568432 0.0292654 0.0295731
8 3 0.0270756 0.0829286 0.0584115
9 2 0.991265 0.109951 0.0639221
10 2 0.0527507 0.107312 0.0547379
11 3 0.0467367 0.0379534 0.0791678
12 2 0.0827743 0.0118405 0.0734736
13 2 0.0214278 0.0135432 0.0830252
14 3 0.0528611 0.0659186 0.102496
15 2 0.0786817 0.0898872 0.0986383
16 2 0.0172278 0.0920315 0.10819
17 3 0.073034 0.0205018 0.123252
18 2 0.108737 0.993921 0.117741
19 2 0.0473589 0.996118 0.126926
20 3 0.0791583 0.048467 0.14658
21 2 0.10436 0.0733189 0.142723
22 2 0.0431969 0.0746333 0.151907
23 1 0.0997735 0.00307687 0.167153
24 2 0.0748622 0.978145 0.171561
25 2 0.104324 0.0230495 0.181664
26 2 0.135881 0.976496 0.161642
27 1 0.166774 0.100795 0.014511
28 2 0.191793 0.125285 0.0101026
29 2 0.162331 0.0803809 0
30 2 0.130667 0.127376 0.0200216
31 3 0.187793 0.055405 0.0350837
32 2 0.1627 0.0301115 0.038941
33 2 0.223389 0.0292654 0.0295731
34 3 0.193621 0.0829286 0.0584115
35 2 0.157811 0.109951 0.0639221
36 2 0.219296 0.107312 0.0547379
37 3 0.213686 0.0379534 0.0791678
38 2 0.24932 0.0118405 0.0734736
39 2 0.187973 0.0135432 0.0830252
40 3 0.219811 0.0659186 0.102496
41 2 0.245227 0.0898872 0.0986383
42 2 0.183773 0.0920315 0.10819
43 3 0.239579 0.0205018 0.123252
44 2 0.275282 0.993921 0.117741
45 2 0.214309 0.996118 0.126926
46 3 0.245704 0.048467 0.14658
47 2 0.270905 0.0733189 0.142723
48 2 0.209742 0.0746333 0.151907
49 1 0.266319 0.00307687 0.167153
50 2 0.241408 0.978145 0.171561
51 2 0.27087 0.0230495 0.181664
52 2 0.302426 0.976496 0.161642
53 1 0.333319 0.100795 0.014511
54 2 0.358338 0.125285 0.0101026
55 2 0.32928 0.0803809 0
56 2 0.297212 0.127376 0.0200216
57 3 0.354339 0.055405 0.0350837
58 2 0.329245 0.0301115 0.038941
59 2 0.389934 0.0292654 0.0295731
60 3 0.360166 0.0829286 0.0584115
61 2 0.32476 0.109951 0.0639221
62 2 0.385841 0.107312 0.0547379
63 3 0.380232 0.0379534 0.0791678
64 2 0.415865 0.0118405 0.0734736
65 2 0.354519 0.0135432 0.0830252
66 3 0.386356 0.0659186 0.102496
67 2 0.412177 0.0898872 0.0986383
68 2 0.350723 0.0920315 0.10819
69 3 0.406529 0.0205018 0.123252
70 2 0.442232 0.993921 0.117741
71 2 0.380854 0.996118 0.126926
72 3 0.412249 0.048467 0.14658
73 2 0.43745 0.0733189 0.142723
74 2 0.376288 0.0746333 0.151907
75 1 0.433269 0.00307687 0.167153
76 2 0.408357 0.978145 0.171561
77 2 0.437415 0.0230495 0.181664
78 2 0.469376 0.976496 0.161642
79 1 0.499865 0.100795 0.014511
80 2 0.524884 0.125285 0.0101026
81 2 0.495826 0.0803809 0
82 2 0.464162 0.127376 0.0200216
83 3 0.520884 0.055405 0.0350837
84 2 0.49579 0.0301115 0.038941
85 2 0.556884 0.0292654 0.0295731
86 3 0.527116 0.0829286 0.0584115
87 2 0.491306 0.109951 0.0639221
88 2 0.552387 0.107312 0.0547379
89 3 0.546777 0.0379534 0.0791678
90 2 0.58241 0.0118405 0.0734736
91 2 0.521468 0.0135432 0.0830252
92 3 0.552901 0.0659186 0.102496
93 2 0.578722 0.0898872 0.0986383
94 2 0.517268 0.0920315 0.10819
95 3 0.573074 0.0205018 0.123252
96 2 0.608777 0.993921 0.117741
97 2 0.547399 0.996118 0.126926
98 3 0.578794 0.048467 0.14658
99 2 0.603996 0.0733189 0.142723
100 2 0.543237 0.0746333 0.151907
101 1 0.599814 0.00307687 0.167153
102 2 0.574903 0.978145 0.171561
103 2 0.604365 0.0230495 0.181664
104 2 0.635921 0.976496 0.161642
105 1 0.666814 0.100795 0.014511
106 2 0.691833 0.125285 0.0101026
107 2 0.662371 0.0803809 0
108 2 0.630707 0.127376 0.0200216
109 3 0.68743 0.055405 0.0350837
110 2 0.662336 0.0301115 0.038941
111 2 0.723429 0.0292654 0.0295731
112 3 0.693661 0.0829286 0.0584115
113 2 0.657851 0.109951 0.0639221
114 2 0.719336 0.107312 0.0547379
115 3 0.713727 0.0379534 0.0791678
116 2 0.74936 0.0118405 0.0734736
117 2 0.688014 0.0135432 0.0830252
118 3 0.719447 0.0659186 0.102496
119 2 0.745268 0.0898872 0.0986383
120 2 0.683814 0.0920315 0.10819
121 3 0.73962 0.0205018 0.123252
122 2 0.775323 0.993921 0.117741
123 2 0.713945 0.996118 0.126926
124 3 0.745744 0.048467 0.14658
125 2 0.770945 0.0733189 0.142723
126 2 0.709783 0.0746333 0.151907
127 1 0.766359 0.00307687 0.167153
128 2 0.741448 0.978145 0.171561
129 2 0.77091 0.0230495 0.181664
130 2 0.802466 0.976496 0.161642
131 1 0.83336 0.100795 0.014511
132 2 0.858379 0.125285 0.0101026
133 2 0.829321 0.0803809 0
134 2 0.797253 0.127376 0.0200216
135 3 0.854379 0.055405 0.0350837
136 2 0.829285 0.0301115 0.038941
137 2 0.889974 0.0292654 0.0295731
138 3 0.860207 0.0829286 0.0584115
139 2 0.824396 0.109951 0.0639221
140 2 0.885882 0.107312 0.0547379
141 3 0.880272 0.0379534 0.0791678
142 2 0.915905 0.0118405 0.0734736
143 2 0.854559 0.0135432 0.0830252
144 3 0.886397 0.0659186 0.102496
145 2 0.912217 0.0898872 0.0986383
146 2 0.850763 0.0920315 0.10819
147 3 0.906569 0.0205018 0.123252
148 2 0.941868 0.993921 0.117741
149 2 0.880894 0.996118 0.126926
150 3 0.91229 0.048467 0.14658
151 2 0.937491 0.0733189 0.142723
152 2 0.876328 0.0746333 0.151907
153 1 0.933309 0.00307687 0.167153
154 2 0.908398 0.978145 0.171561
155 2 0.937455 0.0230495 0.181664
156 2 0.969416 0.976496 0.161642
157 1 1.28449e-05 0.300864 0.014511
158 2 0.0250317 0.325354 0.0101026
159 2 0.99557 0.28045 0
160 2 0.963906 0.327445 0.0200216
161 3 0.0211398 0.255032 0.0350837
162 2 0.995939 0.23018 0.038941
163 2 0.0566275 0.229334 0.0295731
164 3 0.0268599 0.282997 0.0584115
165 2 0.99105 0.31002 0.0639221
166 2 0.052535 0.307381 0.0547379
167 3 0.0469253 0.238022 0.0791678
168 2 0.0826662 0.211468 0.0734736
169 2 0.0212122 0.213612 0.0830252
170 3 0.0530496 0.265988 0.102496
171 2 0.0788703 0.289956 0.0986383
172 2 0.0174163 0.2921 0.10819
173 3 0.0732225 0.220571 0.123252
174 2 0.108521 0.193989 0.117741
175 2 0.0475475 0.196187 0.126926
176 3 0.0789426 0.248536 0.14658
177 2 0.104144 0.273388 0.142723
178 2 0.0429812 0.274702 0.151907
179 1 0.0999621 0.203146 0.167153
180 2 0.0750508 0.178214 0.171561
181 2 0.104109 0.223118 0.181664
182 2 0.136069 0.176565 0.161642
183 1 0.166558 0.300864 0.014511
184 2 0.191577 0.325354 0.0101026
185 2 0.162519 0.28045 0
186 2 0.130451 0.327445 0.0200216
187 3 0.187685 0.255032 0.0350837
188 2 0.162484 0.23018 0.038941
189 2 0.223577 0.229334 0.0295731
190 3 0.193405 0.282997 0.0584115
191 2 0.157999 0.31002 0.0639221
192 2 0.21908 0.307381 0.0547379
193 3 0.213471 0.238022 0.0791678
194 2 0.249212 0.211468 0.0734736
195 2 0.188162 0.213612 0.0830252
196 3 0.219595 0.265988 0.102496
197 2 0.245416 0.289956 0.0986383
198 2 0.183962 0.2921 0.10819
199 3 0.239768 0.220571 0.123252
200 2 0.275471 0.193989 0.117741
201 2 0.214093 0.196187 0.126926
202 3 0.245488 0.248536 0.14658
203 2 0.270689 0.273388 0.142723
204 2 0.209931 0.274702 0.151907
205 1 0.266507 0.203146 0.167153
206 2 0.241596 0.178214 0.171561
207 2 0.271058 0.223118 0.181664
208 2 0.302615 0.176565 0.161642
209 1 0.333508 0.300864 0.014511
210 2 0.358527 0.325354 0.0101026
211 2 0.329065 0.28045 0
212 2 0.297401 0.327445 0.0200216
213 3 0.354231 0.255032 0.0350837
214 2 0.329029 0.23018 0.038941
215 2 0.390123 0.229334 0.0295731
216 3 0.360355 0.282997 0.0584115
217 2 0.324545 0.31002 0.0639221
218 2 0.38603 0.307381 0.0547379
219 3 0.38042 0.238022 0.0791678
220 2 0.416161 0.211468 0.0734736
221 2 0.354707 0.213612 0.0830252
222 3 0.38614 0.265988 0.102496
223 2 0.411961 0.289956 0.0986383
224 2 0.350507 0.2921 0.10819
225 3 0.406313 0.220571 0.123252
226 2 0.442016 0.193989 0.117741
227 2 0.380638 0.196187 0.126926
228 3 0.412438 0.248536 0.14658
229 2 0.437639 0.273388 0.142723
230 2 0.376476 0.274702 0.151907
231 1 0.433053 0.203146 0.167153
232 2 0.408142 0.178214 0.171561
233 2 0.437604 0.223118 0.181664
234 2 0.46916 0.176565 0.161642
235 1 0.500053 0.300864 0.014511
236 2 0.525072 0.325354 0.0101026
237 2 0.49561 0.28045 0
238 2 0.463946 0.327445 0.0200216
239 3 0.52118 0.255032 0.0350837
240 2 0.495979 0.23018 0.038941
241 2 0.556668 0.229334 0.0295731
242 3 0.5269 0.282997 0.0584115
243 2 0.49109 0.31002 0.0639221
244 2 0.552575 0.307381 0.0547379
245 3 0.546966 0.238022 0.0791678
246 2 0.582707 0.211468 0.0734736
247 2 0.521253 0.213612 0.0830252
248 3 0.55309 0.265988 0.102496
249 2 0.578506 0.289956 0.0986383
250 2 0.517457 0.2921 0.10819
251 3 0.572859 0.220571 0.123252
252 2 0.608562 0.193989 0.117741
253 2 0.547588 0.196187 0.126926
254 3 0.578983 0.248536 0.14658
255 2 0.604184 0.273388 0.142723
256 2 0.543022 0.274702 0.151907
257 1 0.600003 0.203146 0.167153
258 2 0.575091 0.178214 0.171561
259 2 0.604149 0.223118 0.181664
260 2 0.635705 0.176565 0.161642
261 1 0.666599 0.300864 0.014511
262 2 0.691617 0.325354 0.0101026
263 2 0.66256 0.28045 0
264 2 0.630492 0.327445 0.0200216
265 3 0.687726 0.255032 0.0350837
266 2 0.662524 0.23018 0.038941
267 2 0.723618 0.229334 0.0295731
268 3 0.693446 0.282997 0.0584115
269 2 0.65804 0.31002 0.0639221
270 2 0.719121 0.307381 0.0547379
271 3 0.713511 0.238022 0.0791678
272 2 0.749252 0.211468 0.0734736
273 2 0.687798 0.213612 0.0830252
274 3 0.719635 0.265988 0.102496
275 2 0.745456 0.289956 0.0986383
276 2 0.684002 0.2921 0.10819
277 3 0.739808 0.220571 0.123252
278 2 0.775511 0.193989 0.117741
279 2 0.714133 0.196187 0.126926
280 3 0.745528 0.248536 0.14658
281 2 0.77073 0.273388 0.142723
282 2 0.709971 0.274702 0.151907
283 1 0.766548 0.203146 0.167153
284 2 0.741637 0.178214 0.171561
285 2 0.771099 0.223118 0.181664
286 2 0.802655 0.176565 0.161642
287 1 0.833548 0.300864 0.014511
288 2 0.858567 0.325354 0.0101026
289 2 0.829105 0.28045 0
290 2 0.797441 0.327445 0.0200216
291 3 0.854271 0.255032 0.0350837
292 2 0.82907 0.23018 0.038941
293 2 0.890163 0.229334 0.0295731
294 3 0.860395 0.282997 0.0584115
295 2 0.824585 0.31002 0.0639221
296 2 0.885666 0.307381 0.0547379
297 3 0.880057 0.238022 0.0791678
298 2 0.916202 0.211468 0.0734736
299 2 0.854748 0.213612 0.0830252
300 3 0.886181 0.265988 0.102496
301 2 0.912002 0.289956 0.0986383
302 2 0.850548 0.2921 0.10819
303 3 0.906354 0.220571 0.123252
304 2 0.942057 0.193989 0.117741
305 2 0.880679 0.196187 0.126926
306 3 0.912074 0.248536 0.14658
307 2 0.937679 0.273388 0.142723
308 2 0.876517 0.274702 0.151907
309 1 0.933093 0.203146 0.167153
310 2 0.908182 0.178214 0.171561
311 2 0.937644 0.223118 0.181664
312 2 0.9692 0.176565 0.161642
313 1 0.000201418 0.500933 0.014511
314 2 0.0252202 0.525423 0.0101026
315 2 0.995758 0.480519 0
316 2 0.964202 0.527073 0.0200216
317 3 0.0209242 0.455101 0.0350837
318 2 0.995723 0.430249 0.038941
319 2 0.0568161 0.429403 0.0295731
320 3 0.0270485 0.483066 0.0584115
321 2 0.991346 0.509648 0.0639221
322 2 0.0523193 0.50745 0.0547379
323 3 0.0468172 0.43765 0.0791678
324 2 0.0828547 0.411537 0.0734736
325 2 0.0214008 0.413681 0.0830252
326 3 0.052834 0.466056 0.102496
327 2 0.0786546 0.490025 0.0986383
328 2 0.0172007 0.492169 0.10819
329 3 0.0730069 0.42064 0.123252
330 2 0.10871 0.394058 0.117741
331 2 0.0473318 0.396256 0.126926
332 3 0.078727 0.448605 0.14658
333 2 0.104333 0.473457 0.142723
334 2 0.0432774 0.474329 0.151907
335 1 0.099854 0.402773 0.167153
336 2 0.0748352 0.378283 0.171561
337 2 0.104297 0.423187 0.181664
338 2 0.135853 0.376633 0.161642
339 1 0.166747 0.500933 0.014511
340 2 0.191766 0.525423 0.0101026
341 2 0.162304 0.480519 0
342 2 0.130747 0.527073 0.0200216
343 3 0.187874 0.455101 0.0350837
344 2 0.162268 0.430249 0.038941
345 2 0.223361 0.429403 0.0295731
346 3 0.193594 0.483066 0.0584115
347 2 0.157891 0.509648 0.0639221
348 2 0.219269 0.50745 0.0547379
349 3 0.213767 0.43765 0.0791678
350 2 0.2494 0.411537 0.0734736
351 2 0.187946 0.413681 0.0830252
352 3 0.219784 0.466056 0.102496
353 2 0.2452 0.490025 0.0986383
354 2 0.183746 0.492169 0.10819
355 3 0.239552 0.42064 0.123252
356 2 0.275255 0.394058 0.117741
357 2 0.214281 0.396256 0.126926
358 3 0.245677 0.448605 0.14658
359 2 0.270878 0.473457 0.142723
360 2 0.209823 0.474329 0.151907
361 1 0.266399 0.402773 0.167153
362 2 0.241381 0.378283 0.171561
363 2 0.270843 0.423187 0.181664
364 2 0.302399 0.376633 0.161642
365 1 0.333292 0.500933 0.014511
366 2 0.358311 0.525423 0.0101026
367 2 0.329253 0.480519 0
368 2 0.297293 0.527073 0.0200216
369 3 0.354419 0.455101 0.0350837
370 2 0.329218 0.430249 0.038941
371 2 0.389907 0.429403 0.0295731
372 3 0.360139 0.483066 0.0584115
373 2 0.324437 0.509648 0.0639221
374 2 0.385814 0.50745 0.0547379
375 3 0.380312 0.43765 0.0791678
376 2 0.415946 0.411537 0.0734736
377 2 0.354492 0.413681 0.0830252
378 3 0.386329 0.466056 0.102496
379 2 0.41215 0.490025 0.0986383
380 2 0.350696 0.492169 0.10819
381 3 0.406502 0.42064 0.123252
382 2 0.442205 0.394058 0.117741
383 2 0.380827 0.396256 0.126926
384 3 0.412222 0.448605 0.14658
385 2 0.437423 0.473457 0.142723
386 2 0.376368 0.474329 0.151907
387 1 0.433349 0.402773 0.167153
388 2 0.40833 0.378283 0.171561
389 2 0.437388 0.423187 0.181664
390 2 0.469348 0.376633 0.161642
391 1 0.499838 0.500933 0.014511
392 2 0.524856 0.525423 0.0101026
393 2 0.495799 0.480519 0
394 2 0.464242 0.527073 0.0200216
395 3 0.520965 0.455101 0.0350837
396 2 0.495763 0.430249 0.038941
397 2 0.556857 0.429403 0.0295731
398 3 0.527089 0.483066 0.0584115
399 2 0.491386 0.509648 0.0639221
400 2 0.55236 0.50745 0.0547379
401 3 0.546858 0.43765 0.0791678
402 2 0.582491 0.411537 0.0734736
403 2 0.521441 0.413681 0.0830252
404 3 0.552874 0.466056 0.102496
405 2 0.578695 0.490025 0.0986383
406 2 0.517241 0.492169 0.10819
407 3 0.573047 0.42064 0.123252
408 2 0.60875 0.394058 0.117741
409 2 0.547372 0.396256 0.126926
410 3 0.578767 0.448605 0.14658
411 2 0.603969 0.473457 0.142723
412 2 0.543318 0.474329 0.151907
413 1 0.599894 0.402773 0.167153
414 2 0.574876 0.378283 0.171561
415 2 0.604338 0.423187 0.181664
416 2 0.635894 0.376633 0.161642
417 1 0.666787 0.500933 0.014511
418 2 0.691806 0.525423 0.0101026
419 2 0.662344 0.480519 0
420 2 0.630788 0.527073 0.0200216
421 3 0.68751 0.455101 0.0350837
422 2 0.662309 0.430249 0.038941
423 2 0.723402 0.429403 0.0295731
424 3 0.693634 0.483066 0.0584115
425 2 0.657932 0.509648 0.0639221
426 2 0.719309 0.50745 0.0547379
427 3 0.713807 0.43765 0.0791678
428 2 0.749441 0.411537 0.0734736
429 2 0.687987 0.413681 0.0830252
430 3 0.71942 0.466056 0.102496
431 2 0.74524 0.490025 0.0986383
432 2 0.683786 0.492169 0.10819
433 3 0.739593 0.42064 0.123252
434 2 0.775295 0.394058 0.117741
435 2 0.713918 0.396256 0.126926
436 3 0.745717 0.448605 0.14658
437 2 0.770918 0.473457 0.142723
438 2 0.709863 0.474329 0.151907
439 1 0.76644 0.402773 0.167153
440 2 0.741421 0.378283 0.171561
441 2 0.770883 0.423187 0.181664
442 2 0.802439 0.376633 0.161642
443 1 0.833333 0.500933 0.014511
444 2 0.858351 0.525423 0.0101026
445 2 0.828889 0.480519 0
446 2 0.797333 0.527073 0.0200216
447 3 0.85446 0.455101 0.0350837
448 2 0.829258 0.430249 0.038941
449 2 0.889947 0.429403 0.0295731
450 3 0.86018 0.483066 0.0584115
451 2 0.824477 0.509648 0.0639221
452 2 0.885855 0.50745 0.0547379
453 3 0.880353 0.43765 0.0791678
454 2 0.915986 0.411537 0.0734736
455 2 0.854532 0.413681 0.0830252
456 3 0.886369 0.466056 0.102496
457 2 0.91219 0.490025 0.0986383
458 2 0.850736 0.492169 0.10819
459 3 0.906542 0.42064 0.123252
460 2 0.941841 0.394058 0.117741
461 2 0.880867 0.396256 0.126926
462 3 0.912262 0.448605 0.14658
463 2 0.937464 0.473457 0.142723
464 2 0.876409 0.474329 0.151907
465 1 0.933389 0.402773 0.167153
466 2 0.908371 0.378283 0.171561
467 2 0.937428 0.423187 0.181664
468 2 0.969389 0.376633 0.161642
469 1 0.999986 0.701002 0.014511
470 2 0.0250046 0.725492 0.0101026
471 2 0.995543 0.680588 0
472 2 0.963986 0.727141 0.0200216
473 3 0.0211127 0.65517 0.0350837
474 2 0.995911 0.630318 0.038941
475 2 0.056708 0.62903 0.0295731
476 3 0.0268329 0.683135 0.0584115
477 2 0.99113 0.709717 0.0639221
478 2 0.0525079 0.707519 0.0547379
479 3 0.0470058 0.637718 0.0791678
480 2 0.0826391 0.611606 0.0734736
481 2 0.0211851 0.61375 0.0830252
482 3 0.0531301 0.665684 0.102496
483 2 0.0788432 0.690094 0.0986383
484 2 0.0173892 0.692238 0.10819
485 3 0.0731954 0.620708 0.123252
486 2 0.108602 0.593686 0.117741
487 2 0.0475204 0.596325 0.126926
488 3 0.0789156 0.648674 0.14658
489 2 0.104117 0.673526 0.142723
490 2 0.0430617 0.674398 0.151907
491 1 0.100043 0.602842 0.167153
492 2 0.0750237 0.578352 0.171561
493 2 0.104081 0.623256 0.181664
494 2 0.13615 0.576261 0.161642
495 1 0.166531 0.701002 0.014511
496 2 0.19155 0.725492 0.0101026
497 2 0.162492 0.680588 0
498 2 0.130532 0.727141 0.0200216
499 3 0.187658 0.65517 0.0350837
500 2 0.162457 0.630318 0.038941
501 2 0.223658 0.62903 0.0295731
502 3 0.193378 0.683135 0.0584115
503 2 0.15808 0.709717 0.0639221
504 2 0.219053 0.707519 0.0547379
505 3 0.213551 0.637718 0.0791678
506 2 0.249184 0.611606 0.0734736
507 2 0.188135 0.61375 0.0830252
508 3 0.219676 0.665684 0.102496
509 2 0.245389 0.690094 0.0986383
510 2 0.183935 0.692238 0.10819
511 3 0.239741 0.620708 0.123252
512 2 0.275551 0.593686 0.117741
513 2 0.214066 0.596325 0.126926
514 3 0.245461 0.648674 0.14658
515 2 0.270662 0.673526 0.142723
516 2 0.210011 0.674398 0.151907
517 1 0.266588 0.602842 0.167153
518 2 0.241569 0.578352 0.171561
519 2 0.271031 0.623256 0.181664
520 2 0.302695 0.576261 0.161642
521 1 0.333481 0.701002 0.014511
522 2 0.3585 0.725492 0.0101026
523 2 0.329038 0.680588 0
524 2 0.297481 0.727141 0.0200216
525 3 0.354204 0.65517 0.0350837
526 2 0.329002 0.630318 0.038941
527 2 0.390203 0.62903 0.0295731
528 3 0.360328 0.683135 0.0584115
529 2 0.324625 0.709717 0.0639221
530 2 0.386003 0.707519 0.0547379
531 3 0.380501 0.637718 0.0791678
532 2 0.416134 0.611606 0.0734736
533 2 0.35468 0.61375 0.0830252
534 3 0.386221 0.665684 0.102496
535 2 0.411934 0.690094 0.0986383
536 2 0.35048 0.692238 0.10819
537 3 0.406286 0.620708 0.123252
538 2 0.442097 0.593686 0.117741
539 2 0.380611 0.596325 0.126926
540 3 0.412411 0.648674 0.14658
541 2 0.437612 0.673526 0.142723
542 2 0.376557 0.674398 0.151907
543 1 0.433133 0.602842 0.167153
544 2 0.408115 0.578352 0.171561
545 2 0.437577 0.623256 0.181664
546 2 0.46924 0.576261 0.161642
547 1 0.500026 0.701002 0.014511
548 2 0.525045 0.725492 0.0101026
549 2 0.495583 0.680588 0
550 2 0.464027 0.727141 0.0200216
551 3 0.521153 0.65517 0.0350837
552 2 0.495952 0.630318 0.038941
553 2 0.556748 0.62903 0.0295731
554 3 0.526873 0.683135 0.0584115
555 2 0.49117 0.709717 0.0639221
556 2 0.552548 0.707519 0.0547379
557 3 0.547046 0.637718 0.0791678
558 2 0.582679 0.611606 0.0734736
559 2 0.521226 0.61375 0.0830252
560 3 0.553171 0.665684 0.102496
561 2 0.578479 0.690094 0.0986383
562 2 0.51743 0.692238 0.10819
563 3 0.572832 0.620708 0.123252
564 2 0.608642 0.593686 0.117741
565 2 0.547561 0.596325 0.126926
566 3 0.578956 0.648674 0.14658
567 2 0.604157 0.673526 0.142723
568 2 0.543102 0.674398 0.151907
569 1 0.600083 0.602842 0.167153
570 2 0.575064 0.578352 0.171561
571 2 0.604122 0.623256 0.181664
572 2 0.635786 0.576261 0.161642
573 1 0.666572 0.701002 0.014511
574 2 0.69159 0.725492 0.0101026
575 2 0.662533 0.680588 0
576 2 0.630572 0.727141 0.0200216
577 3 0.687699 0.65517 0.0350837
578 2 0.662497 0.630318 0.038941
579 2 0.723698 0.62903 0.0295731
580 3 0.693419 0.683135 0.0584115
581 2 0.65812 0.709717 0.0639221
582 2 0.719094 0.707519 0.0547379
583 3 0.713592 0.637718 0.0791678
584 2 0.749225 0.611606 0.0734736
585 2 0.687771 0.61375 0.0830252
586 3 0.719716 0.665684 0.102496
587 2 0.745429 0.690094 0.0986383
588 2 0.683975 0.692238 0.10819
589 3 0.739781 0.620708 0.123252
590 2 0.775592 0.593686 0.117741
591 2 0.714106 0.596325 0.126926
592 3 0.745501 0.648674 0.14658
593 2 0.770703 0.673526 0.142723
594 2 0.710052 0.674398 0.151907
595 1 0.766628 0.602842 0.167153
596 2 0.74161 0.578352 0.171561
597 2 0.771072 0.623256 0.181664
598 2 0.802735 0.576261 0.161642
599 1 0.833521 0.701002 0.014511
600 2 0.85854 0.725492 0.0101026
601 2 0.829078 0.680588 0
602 2 0.797522 0.727141 0.0200216
603 3 0.854244 0.65517 0.0350837
604 2 0.829043 0.630318 0.038941
605 2 0.890243 0.62903 0.0295731
606 3 0.860368 0.683135 0.0584115
607 2 0.824666 0.709717 0.0639221
608 2 0.885639 0.707519 0.0547379
609 3 0.880137 0.637718 0.0791678
610 2 0.916175 0.611606 0.0734736
611 2 0.854721 0.61375 0.0830252
612 3 0.886261 0.665684 0.102496
613 2 0.911974 0.690094 0.0986383
614 2 0.85052 0.692238 0.10819
615 3 0.906327 0.620708 0.123252
616 2 0.942137 0.593686 0.117741
617 2 0.880652 0.596325 0.126926
618 3 0.912047 0.648674 0.14658
619 2 0.937652 0.673526 0.142723
620 2 0.876597 0.674398 0.151907
621 1 0.933174 0.602842 0.167153
622 2 0.908155 0.578352 0.171561
623 2 0.937617 0.623256 0.181664
624 2 0.969281 0.576261 0.161642
625 1 0.000281886 0.900629 0.014511
626 2 0.0251931 0.925561 0.0101026
627 2 0.995731 0.880656 0
628 2 0.964175 0.92721 0.0200216
629 3 0.0208971 0.855239 0.0350837
630 2 0.995696 0.830387 0.038941
631 2 0.0568966 0.829099 0.0295731
632 3 0.0270214 0.883204 0.0584115
633 2 0.991319 0.909785 0.0639221
634 2 0.0522922 0.907588 0.0547379
635 3 0.0467901 0.837787 0.0791678
636 2 0.0828276 0.811674 0.0734736
637 2 0.0213737 0.813819 0.0830252
638 3 0.0529144 0.865753 0.102496
639 2 0.0786275 0.890163 0.0986383
640 2 0.0172811 0.891865 0.10819
641 3 0.0729798 0.820777 0.123252
642 2 0.10879 0.793754 0.117741
643 2 0.0473047 0.796394 0.126926
644 3 0.0788075 0.848301 0.14658
645 2 0.104305 0.873594 0.142723
646 2 0.0432503 0.874467 0.151907
647 1 0.0998269 0.802911 0.167153
648 2 0.0748081 0.778421 0.171561
649 2 0.10427 0.823325 0.181664
650 2 0.135934 0.77633 0.161642
651 1 0.166827 0.900629 0.014511
652 2 0.191739 0.925561 0.0101026
653 2 0.162277 0.880656 0
654 2 0.13072 0.92721 0.0200216
655 3 0.187847 0.855239 0.0350837
656 2 0.162241 0.830387 0.038941
657 2 0.223442 0.829099 0.0295731
658 3 0.193567 0.883204 0.0584115
659 2 0.157864 0.909785 0.0639221
660 2 0.219242 0.907588 0.0547379
661 3 0.21374 0.837787 0.0791678
662 2 0.249373 0.811674 0.0734736
663 2 0.187919 0.813819 0.0830252
664 3 0.219864 0.865753 0.102496
665 2 0.245173 0.890163 0.0986383
666 2 0.183827 0.891865 0.10819
667 3 0.239525 0.820777 0.123252
668 2 0.275336 0.793754 0.117741
669 2 0.214254 0.796394 0.126926
670 3 0.245757 0.848301 0.14658
671 2 0.270851 0.873594 0.142723
672 2 0.209796 0.874467 0.151907
673 1 0.266372 0.802911 0.167153
674 2 0.241353 0.778421 0.171561
675 2 0.270815 0.823325 0.181664
676 2 0.302479 0.77633 0.161642
677 1 0.333373 0.900629 0.014511
678 2 0.358284 0.925561 0.0101026
679 2 0.329226 0.880656 0
680 2 0.297266 0.92721 0.0200216
681 3 0.354392 0.855239 0.0350837
682 2 0.329191 0.830387 0.038941
683 2 0.389987 0.829099 0.0295731
684 3 0.360112 0.883204 0.0584115
685 2 0.324409 0.909785 0.0639221
686 2 0.385787 0.907588 0.0547379
687 3 0.380285 0.837787 0.0791678
688 2 0.415918 0.811674 0.0734736
689 2 0.354464 0.813819 0.0830252
690 3 0.386409 0.865753 0.102496
691 2 0.412123 0.890163 0.0986383
692 2 0.350776 0.891865 0.10819
693 3 0.406475 0.820777 0.123252
694 2 0.442285 0.793754 0.117741
695 2 0.3808 0.796394 0.126926
696 3 0.412302 0.848301 0.14658
697 2 0.437396 0.873594 0.142723
698 2 0.376341 0.874467 0.151907
699 1 0.433322 0.802911 0.167153
700 2 0.408303 0.778421 0.171561
701 2 0.437361 0.823325 0.181664
702 2 0.469429 0.77633 0.161642
703 1 0.499918 0.900629 0.014511
704 2 0.524829 0.925561 0.0101026
705 2 0.495772 0.880656 0
706 2 0.464215 0.92721 0.0200216
707 3 0.520938 0.855239 0.0350837
708 2 0.495736 0.830387 0.038941
709 2 0.556937 0.829099 0.0295731
710 3 0.527062 0.883204 0.0584115
711 2 0.491359 0.909785 0.0639221
712 2 0.552333 0.907588 0.0547379
713 3 0.546831 0.837787 0.0791678
714 2 0.582464 0.811674 0.0734736
715 2 0.521414 0.813819 0.0830252
716 3 0.552955 0.865753 0.102496
717 2 0.578668 0.890163 0.0986383
718 2 0.517322 0.891865 0.10819
719 3 0.57302 0.820777 0.123252
720 2 0.608831 0.793754 0.117741
721 2 0.547345 0.796394 0.126926
722 3 0.578848 0.848301 0.14658
723 2 0.603942 0.873594 0.142723
724 2 0.543291 0.874467 0.151907
725 1 0.599867 0.802911 0.167153
726 2 0.574848 0.778421 0.171561
727 2 0.60431 0.823325 0.181664
728 2 0.635974 0.77633 0.161642
729 1 0.666868 0.900629 0.014511
730 2 0.691779 0.925561 0.0101026
731 2 0.662317 0.880656 0
732 2 0.630761 0.92721 0.0200216
733 3 0.687483 0.855239 0.0350837
734 2 0.662282 0.830387 0.038941
735 2 0.723482 0.829099 0.0295731
736 3 0.693607 0.883204 0.0584115
737 2 0.657904 0.909785 0.0639221
738 2 0.719282 0.907588 0.0547379
739 3 0.71378 0.837787 0.0791678
740 2 0.749413 0.811674 0.0734736
741 2 0.687959 0.813819 0.0830252
742 3 0.7195 0.865753 0.102496
743 2 0.745213 0.890163 0.0986383
744 2 0.683867 0.891865 0.10819
745 3 0.739566 0.820777 0.123252
746 2 0.775376 0.793754 0.117741
747 2 0.713891 0.796394 0.126926
748 3 0.745798 0.848301 0.14658
749 2 0.770891 0.873594 0.142723
750 2 0.709836 0.874467 0.151907
751 1 0.766413 0.802911 0.167153
752 2 0.741394 0.778421 0.171561
753 2 0.770856 0.823325 0.181664
754 2 0.80252 0.77633 0.161642
755 1 0.833413 0.900629 0.014511
756 2 0.858324 0.925561 0.0101026
757 2 0.828862 0.880656 0
758 2 0.797306 0.92721 0.0200216
759 3 0.854433 0.855239 0.0350837
760 2 0.829231 0.830387 0.038941
761 2 0.890028 0.829099 0.0295731
762 3 0.860153 0.883204 0.0584115
763 2 0.82445 0.909785 0.0639221
764 2 0.885828 0.907588 0.0547379
765 3 0.880326 0.837787 0.0791678
766 2 0.915959 0.811674 0.0734736
767 2 0.854505 0.813819 0.0830252
768 3 0.88645 0.865753 0.102496
769 2 0.912163 0.890163 0.0986383
770 2 0.850817 0.891865 0.10819
771 3 0.906515 0.820777 0.123252
772 2 0.941921 0.793754 0.117741
773 2 0.88084 0.796394 0.126926
774 3 0.912343 0.848301 0.14658
775 2 0.937437 0.873594 0.142723
776 2 0.876381 0.874467 0.151907
777 1 0.933362 0.802911 0.167153
778 2 0.908344 0.778421 0.171561
779 2 0.937401 0.823325 0.181664
780 2 0.969469 0.77633 0.161642
781 1 0.000188559 0.100858 0.214543
782 2 0.0252074 0.125348 0.210135
783 2 0.995745 0.0804434 0.200032
784 2 0.964082 0.127439 0.220054
785 3 0.0209113 0.0550258 0.235116
786 2 0.99571 0.030174 0.238973
787 2 0.0568032 0.0293279 0.229605
788 3 0.0270737 0.0830178 0.25826
789 2 0.991225 0.110014 0.263954
790 2 0.0527488 0.107401 0.254586
791 3 0.047101 0.0380159 0.2792
792 2 0.0828419 0.0114614 0.273506
793 2 0.0213879 0.0136057 0.283057
794 3 0.0528211 0.0659811 0.302528
795 2 0.0786798 0.0899764 0.298487
796 2 0.0171878 0.092094 0.308222
797 3 0.072994 0.0205642 0.323284
798 2 0.108697 0.993983 0.317773
799 2 0.047319 0.996181 0.326958
800 3 0.0791184 0.0485295 0.346612
801 2 0.10432 0.0733813 0.342754
802 2 0.0431569 0.0746958 0.351939
803 1 0.0997716 0.00316606 0.367001
804 2 0.0748223 0.978207 0.371593
805 2 0.104284 0.023112 0.381696
806 2 0.135841 0.976558 0.361674
807 1 0.166734 0.100858 0.214543
808 2 0.191753 0.125348 0.210135
809 2 0.162291 0.0804434 0.200032
810 2 0.130627 0.127439 0.220054
811 3 0.187861 0.0550258 0.235116
812 2 0.16266 0.030174 0.238973
813 2 0.223349 0.0293279 0.229605
814 3 0.193619 0.0830178 0.25826
815 2 0.157771 0.110014 0.263954
816 2 0.219294 0.107401 0.254586
817 3 0.213646 0.0380159 0.2792
818 2 0.249387 0.0114614 0.273506
819 2 0.187933 0.0136057 0.283057
820 3 0.219771 0.0659811 0.302528
821 2 0.245225 0.0899764 0.298487
822 2 0.184137 0.092094 0.308222
823 3 0.239539 0.0205642 0.323284
824 2 0.275242 0.993983 0.317773
825 2 0.214269 0.996181 0.326958
826 3 0.245664 0.0485295 0.346612
827 2 0.270865 0.0733813 0.342754
828 2 0.209702 0.0746958 0.351939
829 1 0.266721 0.00316606 0.367001
830 2 0.241772 0.978207 0.371593
831 2 0.27083 0.023112 0.381696
832 2 0.302386 0.976558 0.361674
833 1 0.333279 0.100858 0.214543
834 2 0.358298 0.125348 0.210135
835 2 0.32924 0.0804434 0.200032
836 2 0.297172 0.127439 0.220054
837 3 0.354406 0.0550258 0.235116
838 2 0.329205 0.030174 0.238973
839 2 0.390298 0.0293279 0.229605
840 3 0.360165 0.0830178 0.25826
841 2 0.32472 0.110014 0.263954
842 2 0.38584 0.107401 0.254586
843 3 0.380192 0.0380159 0.2792
844 2 0.415933 0.0114614 0.273506
845 2 0.354479 0.0136057 0.283057
846 3 0.386316 0.0659811 0.302528
847 2 0.412175 0.0899764 0.298487
848 2 0.350683 0.092094 0.308222
849 3 0.406489 0.0205642 0.323284
850 2 0.442192 0.993983 0.317773
851 2 0.380814 0.996181 0.326958
852 3 0.412209 0.0485295 0.346612
853 2 0.43741 0.0733813 0.342754
854 2 0.376652 0.0746958 0.351939
855 1 0.433267 0.00316606 0.367001
856 2 0.408317 0.978207 0.371593
857 2 0.437779 0.023112 0.381696
858 2 0.469336 0.976558 0.361674
859 1 0.500229 0.100858 0.214543
860 2 0.525248 0.125348 0.210135
861 2 0.495786 0.0804434 0.200032
862 2 0.464122 0.127439 0.220054
863 3 0.520952 0.0550258 0.235116
864 2 0.49575 0.030174 0.238973
865 2 0.556844 0.0293279 0.229605
866 3 0.527114 0.0830178 0.25826
867 2 0.491266 0.110014 0.263954
868 2 0.552385 0.107401 0.254586
869 3 0.546737 0.0380159 0.2792
870 2 0.582882 0.0114614 0.273506
871 2 0.521428 0.0136057 0.283057
872 3 0.552862 0.0659811 0.302528
873 2 0.57872 0.0899764 0.298487
874 2 0.517228 0.092094 0.308222
875 3 0.573034 0.0205642 0.323284
876 2 0.608737 0.993983 0.317773
877 2 0.547359 0.996181 0.326958
878 3 0.578755 0.0485295 0.346612
879 2 0.60436 0.0733813 0.342754
880 2 0.543197 0.0746958 0.351939
881 1 0.599812 0.00316606 0.367001
882 2 0.574863 0.978207 0.371593
883 2 0.604325 0.023112 0.381696
884 2 0.635881 0.976558 0.361674
885 1 0.666774 0.100858 0.214543
886 2 0.691793 0.125348 0.210135
887 2 0.662331 0.0804434 0.200032
888 2 0.630667 0.127439 0.220054
889 3 0.687901 0.0550258 0.235116
890 2 0.662296 0.030174 0.238973
891 2 0.723389 0.0293279 0.229605
892 3 0.69366 0.0830178 0.25826
893 2 0.657811 0.110014 0.263954
894 2 0.719335 0.107401 0.254586
895 3 0.713687 0.0380159 0.2792
896 2 0.749428 0.0114614 0.273506
897 2 0.687974 0.0136057 0.283057
898 3 0.719811 0.0659811 0.302528